/*--------------------------------*- C++ -*----------------------------------*\
| =========                 |                                                 |
| \\      /  F ield         | OpenFOAM: The Open Source CFD Toolbox           |
|  \\    /   O peration     | Version:  2.3.1                                 |
|   \\  /    A nd           | Web:      www.OpenFOAM.org                      |
|    \\/     M anipulation  |                                                 |
\*---------------------------------------------------------------------------*/
FoamFile
{
    version     2.0;
    format      ascii;
    class       volScalarField;
    location    "1e-06";
    object      alphaSgs;
}
// * * * * * * * * * * * * * * * * * * * * * * * * * * * * * * * * * * * * * //

dimensions      [1 -1 -1 0 0 0 0];

internalField   nonuniform List<scalar> 
10000
(
0
1.39641e-13
1.39641e-13
1.39668e-13
7.82266e-15
7.82111e-15
2.79281e-13
2.79308e-13
7.82109e-15
1.56437e-14
7.82262e-15
1.56468e-14
7.82415e-15
7.82569e-15
3.91222e-14
3.12996e-14
9.30312e-18
9.30702e-18
1.39473e-13
4.1875e-13
1.395e-13
7.82874e-15
7.83029e-15
6.22032e-18
7.77867e-18
6.22555e-18
7.78521e-18
6.23079e-18
1.39499e-13
6.23603e-18
1.39526e-13
1.39526e-13
1.56527e-14
7.82868e-15
1.39497e-13
1.39525e-13
6.25443e-18
1.39553e-13
4.18797e-13
3.13117e-18
1.39608e-13
3.13381e-18
1.39636e-13
4.18851e-13
2.80004e-17
1.39663e-13
4.18934e-13
5.60717e-17
1.56415e-14
4.18961e-13
4.1896e-13
1.40416e-16
1.40476e-16
1.40535e-16
1.39775e-13
2.79409e-13
1.39803e-13
1.39831e-13
1.39831e-13
2.25427e-16
7.81116e-15
2.25618e-16
4.19097e-13
2.25809e-16
2.34555e-14
7.81109e-15
7.81266e-15
1.56364e-14
1.69716e-16
7.8158e-15
3.12854e-14
1.56411e-14
7.82053e-15
7.82052e-15
2.83582e-17
2.83702e-17
1.3966e-13
2.83943e-17
1.56441e-14
2.84185e-17
2.79262e-13
2.7929e-13
7.82044e-15
1.56425e-14
7.82202e-15
1.56456e-14
7.8236e-15
7.82519e-15
2.34724e-14
7.82678e-15
1.39515e-13
7.82836e-15
7.82836e-15
7.82996e-15
6.41007e-18
1.39486e-13
6.41555e-18
6.41829e-18
1.39514e-13
1.39514e-13
4.81988e-18
2.7917e-13
2.7917e-13
1.60869e-18
1.39599e-13
1.39599e-13
1.39627e-13
1.39627e-13
1.39656e-13
2.87845e-17
7.82019e-15
7.8218e-15
2.34686e-14
1.56468e-14
3.23256e-18
3.23394e-18
7.82661e-15
1.39568e-13
1.39539e-13
1.61975e-18
3.24089e-18
1.56483e-14
7.82657e-15
2.79163e-13
2.79163e-13
7.82493e-15
7.82493e-15
2.79191e-13
1.39566e-13
7.82328e-15
1.39595e-13
7.82489e-15
4.07099e-26
2.79189e-13
7.82324e-15
2.34697e-14
7.82486e-15
2.79159e-13
1.39565e-13
7.82484e-15
1.5648e-14
3.27029e-18
7.82809e-15
2.34728e-14
1.56529e-14
1.39476e-13
4.1869e-13
1.39505e-13
1.39534e-13
7.82805e-15
2.34726e-14
1.39504e-13
1.39474e-13
7.82803e-15
1.39503e-13
2.79124e-13
1.39532e-13
3.29297e-18
7.82635e-15
7.82635e-15
1.5651e-14
4.94802e-18
1.39472e-13
1.39531e-13
4.18741e-13
1.3956e-13
7.82465e-15
7.82464e-15
3.3087e-18
3.31014e-18
3.31158e-18
7.82627e-15
7.82627e-15
4.97384e-18
1.39529e-13
1.39529e-13
3.32022e-18
1.56491e-14
2.3472e-14
7.82955e-15
8.315e-18
4.18703e-13
6.97937e-13
2.79174e-13
0
0
0
1.56457e-14
2.42213e-25
1.39556e-13
7.82281e-15
1.67099e-18
7.82447e-15
1.39586e-13
3.34636e-18
1.3571e-26
2.7917e-13
0
7.82275e-15
7.82274e-15
1.67757e-18
1.56471e-14
2.34698e-14
7.82775e-15
7.82943e-15
7.82942e-15
1.39464e-13
2.79077e-13
2.79107e-13
2.79136e-13
3.36986e-18
1.68567e-18
4.18778e-13
4.18808e-13
2.79255e-13
2.79285e-13
6.98152e-13
6.98182e-13
1.39853e-13
1.39884e-13
4.19107e-13
7.80564e-15
1.56248e-14
2.72191e-16
1.56281e-14
2.72431e-16
2.42267e-16
2.72671e-16
4.19075e-13
4.19105e-13
1.39944e-13
1.56246e-14
7.80207e-15
1.39914e-13
1.39944e-13
3.34441e-16
3.12694e-14
1.56261e-14
4.19071e-13
2.79492e-13
7.80365e-15
7.80363e-15
3.04978e-16
2.34501e-14
3.12725e-14
2.34552e-14
7.81211e-15
1.22261e-16
7.8138e-15
1.56379e-14
1.56378e-14
7.81891e-15
1.39669e-13
5.58459e-13
1.39699e-13
2.34583e-14
1.56377e-14
1.39668e-13
2.79274e-13
1.39699e-13
2.79335e-13
2.79335e-13
7.81191e-15
1.56341e-14
7.81361e-15
1.39729e-13
2.79334e-13
1.39759e-13
1.85107e-16
1.8519e-16
1.85272e-16
1.3979e-13
2.79395e-13
1.39821e-13
2.47469e-16
2.79456e-13
2.79456e-13
7.80478e-15
7.80477e-15
7.80649e-15
2.79149e-16
7.8082e-15
1.56285e-14
7.80991e-15
2.34541e-14
1.56337e-14
1.24399e-16
1.39727e-13
1.39727e-13
1.39758e-13
1.55777e-16
1.87015e-16
4.18961e-13
5.58594e-13
1.39851e-13
2.79515e-13
5.58686e-13
2.79577e-13
1.40007e-13
4.37935e-16
1.40039e-13
1.56193e-14
2.34395e-14
3.76047e-16
1.39976e-13
2.79576e-13
4.07933e-16
1.56192e-14
4.08299e-16
3.77061e-16
7.79898e-15
3.774e-16
1.39976e-13
3.7774e-16
4.09402e-16
2.34443e-14
4.6908e-14
7.80592e-15
2.20845e-16
7.80766e-15
2.21044e-16
1.39819e-13
1.39819e-13
7.8076e-15
2.53077e-16
7.80934e-15
1.3985e-13
4.1898e-13
2.85226e-16
1.39882e-13
2.79478e-13
2.7951e-13
2.79541e-13
1.39977e-13
1.40009e-13
1.40009e-13
4.45293e-16
4.45495e-16
7.79668e-15
1.40041e-13
4.19199e-13
2.79668e-13
2.797e-13
1.40137e-13
2.79763e-13
5.58952e-13
1.40233e-13
2.34253e-14
1.56055e-14
1.56091e-14
1.5609e-14
5.44403e-16
1.56126e-14
2.34341e-14
4.81011e-16
7.79635e-15
7.79453e-15
4.17445e-16
1.40042e-13
1.4001e-13
1.40074e-13
5.58818e-13
7.7926e-15
3.90748e-14
1.56158e-14
7.79796e-15
4.1916e-16
3.87094e-16
7.7979e-15
3.87447e-16
1.56211e-14
1.5621e-14
7.80326e-15
2.3446e-14
7.80504e-15
1.39816e-13
2.59126e-16
1.39849e-13
4.19028e-13
7.80496e-15
1.56226e-14
1.39849e-13
2.92318e-16
7.8049e-15
1.56262e-14
2.34492e-14
2.3451e-14
1.39751e-13
2.79306e-13
1.95505e-16
2.79371e-13
2.79371e-13
4.19023e-13
2.79436e-13
7.80107e-15
3.26742e-16
2.795e-13
1.39914e-13
7.79917e-15
7.80098e-15
7.80096e-15
1.39914e-13
3.27796e-16
1.39947e-13
3.28098e-16
7.79904e-15
1.39914e-13
3.61408e-16
7.80082e-15
2.3443e-14
7.80263e-15
1.56274e-14
7.80444e-15
4.18951e-13
2.63693e-16
2.96792e-16
2.79432e-13
2.97066e-16
7.8025e-15
2.97341e-16
7.80432e-15
7.8043e-15
1.39848e-13
2.7943e-13
4.19046e-13
1.39914e-13
3.97743e-16
3.64767e-16
3.98112e-16
3.65106e-16
1.3998e-13
1.39947e-13
7.79668e-15
4.19143e-13
4.19143e-13
4.99261e-16
7.79287e-15
1.56137e-14
7.79469e-15
4.33499e-16
4.33701e-16
7.7965e-15
1.56173e-14
7.79833e-15
1.39947e-13
3.67833e-16
7.79828e-15
7.80013e-15
7.80011e-15
3.35019e-16
1.39914e-13
4.19071e-13
4.19105e-13
1.40015e-13
2.79627e-13
4.70342e-16
1.56112e-14
7.7943e-15
1.40049e-13
2.79593e-13
2.7966e-13
2.7966e-13
5.73005e-16
1.4015e-13
2.79727e-13
7.78657e-15
6.41619e-16
1.40151e-13
6.42221e-16
2.34276e-14
2.34257e-14
1.40083e-13
7.79019e-15
5.42089e-16
5.08448e-16
2.34312e-14
5.08926e-16
1.40016e-13
7.79196e-15
1.4005e-13
2.79625e-13
5.10126e-16
7.78997e-15
5.10607e-16
1.40085e-13
5.11088e-16
7.78987e-15
5.11571e-16
1.40085e-13
1.40085e-13
1.40119e-13
4.19265e-13
2.79726e-13
7.78397e-15
6.50136e-16
1.40188e-13
7.78389e-15
7.78393e-15
1.40282e-15
7.78328e-15
1.565e-14
7.78754e-15
7.78951e-15
5.49822e-16
1.40086e-13
1.40121e-13
1.40121e-13
1.40156e-13
5.85573e-16
6.20313e-16
1.40156e-13
1.40191e-13
1.40191e-13
2.79795e-13
6.56333e-16
1.55997e-14
1.56036e-14
2.34237e-14
5.88365e-16
1.40123e-13
1.56073e-14
2.34274e-14
1.56111e-14
7.79291e-15
1.40019e-13
2.79587e-13
2.79621e-13
1.40089e-13
1.40124e-13
1.40124e-13
5.91743e-16
2.79725e-13
2.79725e-13
7.78293e-15
6.62627e-16
2.7976e-13
2.79795e-13
7.78086e-15
7.77888e-15
1.56028e-14
2.34207e-14
1.4016e-13
5.95154e-16
1.56046e-14
2.34264e-14
2.34284e-14
4.91069e-16
2.79585e-13
2.7962e-13
5.26904e-16
7.78838e-15
7.79033e-15
1.56102e-14
1.40056e-13
4.5775e-16
7.79024e-15
1.5614e-14
3.12517e-14
7.79808e-15
1.39915e-13
3.53135e-16
3.88636e-16
1.39915e-13
1.56178e-14
7.79796e-15
2.79441e-13
1.39915e-13
2.79512e-13
1.39951e-13
4.61076e-16
7.79586e-15
1.56136e-14
1.56175e-14
7.79779e-15
7.80175e-15
2.34391e-14
2.84703e-16
2.49236e-16
2.84979e-16
1.39809e-13
2.85256e-16
2.85394e-16
1.56232e-14
7.8036e-15
7.80759e-15
1.56252e-14
2.34487e-14
1.56291e-14
1.39629e-13
7.81353e-15
2.79223e-13
2.79187e-13
1.39737e-13
2.79258e-13
4.18886e-13
4.18886e-13
7.80137e-15
3.23579e-16
2.87766e-16
3.23895e-16
1.39844e-13
1.56207e-14
7.80126e-15
1.56247e-14
3.12615e-14
7.8093e-15
1.56307e-14
1.56307e-14
7.22941e-17
1.56347e-14
7.81531e-15
1.35611e-26
1.56367e-14
6.78111e-27
2.79071e-13
1.56386e-14
1.56366e-14
4.06863e-18
1.56406e-14
1.3948e-13
4.1855e-13
2.03832e-18
1.56385e-14
1.56405e-14
7.82333e-15
1.56446e-14
1.56446e-14
2.78921e-13
2.78921e-13
2.78993e-13
1.39442e-13
7.82123e-15
7.82327e-15
4.10081e-18
2.78991e-13
1.39477e-13
2.05344e-18
1.39514e-13
2.79063e-13
1.3955e-13
3.67209e-17
7.81704e-15
7.81703e-15
0
1.39549e-13
2.79098e-13
1.39586e-13
7.36969e-17
7.37335e-17
1.56339e-14
1.56339e-14
1.39548e-13
3.63062e-25
7.81692e-15
1.39547e-13
1.39547e-13
7.81689e-15
2.34548e-14
7.81894e-15
7.82309e-15
2.34589e-14
6.23722e-18
8.32043e-18
7.82514e-15
1.39397e-13
7.82721e-15
2.34629e-14
7.82929e-15
2.78867e-13
2.78867e-13
2.78941e-13
6.97575e-13
6.97648e-13
2.79126e-13
1.39656e-13
1.12098e-16
1.56292e-14
1.12211e-16
2.79162e-13
7.81246e-15
1.56291e-14
7.49572e-17
7.49948e-17
1.39618e-13
1.39618e-13
2.79198e-13
1.12718e-16
1.56268e-14
1.12832e-16
7.81234e-15
1.5631e-14
7.81442e-15
1.39579e-13
2.7912e-13
1.39616e-13
7.81227e-15
7.81225e-15
1.39616e-13
4.18697e-13
4.18734e-13
1.56265e-14
2.34429e-14
1.39653e-13
7.81217e-15
1.5166e-16
7.58685e-17
1.51814e-16
1.39615e-13
1.51967e-16
4.1873e-13
7.80995e-15
1.56241e-14
1.39652e-13
1.52353e-16
1.5243e-16
1.3969e-13
2.79228e-13
1.90828e-16
7.80556e-15
7.80769e-15
1.56261e-14
1.56282e-14
7.81193e-15
7.81406e-15
3.12691e-14
3.12712e-14
7.82262e-15
6.44807e-18
7.82476e-15
7.82475e-15
1.39382e-13
1.39381e-13
6.46452e-18
6.46782e-18
2.78954e-13
2.78953e-13
1.39496e-13
2.7903e-13
1.39534e-13
7.81604e-15
7.81603e-15
7.81819e-15
1.56364e-14
7.82034e-15
7.8225e-15
4.33843e-18
6.51099e-18
1.56406e-14
6.51767e-18
1.39377e-13
6.52436e-18
6.52771e-18
2.78947e-13
2.78946e-13
1.56383e-14
2.34564e-14
2.34607e-14
1.56448e-14
1.31025e-17
1.39296e-13
2.78826e-13
1.09357e-17
8.75303e-18
1.39334e-13
8.76207e-18
8.76659e-18
8.77112e-18
7.82672e-15
8.78019e-18
1.39333e-13
1.39372e-13
2.789e-13
1.3941e-13
1.3945e-13
1.39449e-13
1.39488e-13
2.20415e-18
7.81785e-15
1.39488e-13
1.39488e-13
0
0
0
2.79053e-13
2.42004e-25
7.81335e-15
4.18578e-13
1.39565e-13
1.18752e-16
2.7913e-13
2.79169e-13
2.79209e-13
1.39723e-13
2.38124e-16
1.39763e-13
2.38372e-16
7.80208e-15
1.39763e-13
2.79286e-13
4.1885e-13
7.79978e-15
2.34306e-14
7.80198e-15
1.39802e-13
4.18808e-13
2.79365e-13
2.79405e-13
1.56127e-14
2.3428e-14
7.79961e-15
3.20334e-16
1.39802e-13
7.79956e-15
3.20839e-16
2.79323e-13
1.39842e-13
1.39882e-13
1.39882e-13
7.79494e-15
1.56124e-14
1.56146e-14
1.56168e-14
7.80162e-15
7.80387e-15
7.80385e-15
2.7924e-13
1.39721e-13
2.82811e-16
1.39761e-13
1.39802e-13
1.39802e-13
3.23896e-16
2.7936e-13
4.18878e-13
7.79459e-15
7.7923e-15
3.65349e-16
4.06158e-16
1.56141e-14
7.79448e-15
1.39802e-13
2.34312e-14
1.56162e-14
1.56208e-14
2.34379e-14
1.63154e-16
1.39638e-13
4.1871e-13
2.79194e-13
1.39801e-13
1.3976e-13
3.27352e-16
7.80108e-15
1.39842e-13
5.58303e-13
2.79397e-13
1.39924e-13
7.79179e-15
1.39965e-13
1.39924e-13
1.56065e-14
7.7917e-15
7.79398e-15
1.5611e-14
3.70837e-16
1.39842e-13
3.71234e-16
3.71433e-16
3.71632e-16
3.71831e-16
7.79612e-15
1.56131e-14
1.56153e-14
2.89824e-16
1.39759e-13
2.90135e-16
1.39801e-13
2.79311e-13
3.32119e-16
3.73835e-16
2.79352e-13
7.79589e-15
7.79354e-15
3.33015e-16
3.74843e-16
2.79351e-13
2.79393e-13
1.39926e-13
7.79106e-15
1.56078e-14
4.17844e-16
1.39884e-13
1.39926e-13
4.18523e-16
1.56077e-14
1.561e-14
2.79391e-13
4.18856e-13
7.79083e-15
4.61875e-16
1.39926e-13
1.39969e-13
1.39969e-13
5.04959e-16
1.5605e-14
1.56049e-14
4.21486e-16
1.39927e-13
1.39927e-13
4.64392e-16
1.39969e-13
4.64899e-16
5.07439e-16
4.65406e-16
1.40012e-13
7.79042e-15
1.56022e-14
1.39927e-13
1.3997e-13
1.3997e-13
1.40012e-13
1.40013e-13
7.78548e-15
1.56019e-14
5.10778e-16
5.58476e-13
5.58518e-13
2.79643e-13
6.82533e-16
1.40227e-13
2.79685e-13
7.77327e-15
7.69538e-16
1.40228e-13
7.70385e-16
7.77314e-15
2.34057e-14
1.55918e-14
1.40143e-13
6.43757e-16
7.77778e-15
6.44468e-16
1.55964e-14
1.55963e-14
5.59464e-16
7.78486e-15
2.34173e-14
7.78722e-15
1.39929e-13
1.39972e-13
4.74966e-16
1.56033e-14
1.39973e-13
2.79426e-13
2.79513e-13
1.40016e-13
7.78213e-15
1.4006e-13
1.4006e-13
1.40103e-13
2.79599e-13
1.40147e-13
7.77709e-15
1.40191e-13
2.79643e-13
1.40235e-13
1.40235e-13
2.3404e-14
2.3404e-14
6.54556e-16
7.77928e-15
1.55952e-14
7.78166e-15
1.56e-14
1.56e-14
1.39975e-13
4.81889e-16
1.40019e-13
5.58452e-13
2.79555e-13
7.77897e-15
6.58964e-16
1.40107e-13
7.77888e-15
2.34105e-14
3.12287e-14
7.78619e-15
4.40792e-16
7.78861e-15
1.39932e-13
7.79103e-15
2.342e-14
3.9783e-16
1.56117e-14
2.34249e-14
1.56165e-14
1.56165e-14
1.56215e-14
6.25699e-16
1.39464e-13
1.56465e-14
1.39622e-13
2.79065e-13
7.80567e-15
7.80565e-15
1.56237e-14
1.33663e-16
2.79019e-13
1.33815e-16
1.3389e-16
7.80806e-15
1.3962e-13
2.79062e-13
1.39665e-13
1.79028e-16
2.3434e-14
1.79232e-16
7.81047e-15
3.12519e-14
7.81295e-15
1.39485e-13
2.78969e-13
7.81292e-15
1.56258e-14
7.81542e-15
2.34462e-14
3.12641e-14
1.56384e-14
1.39258e-13
1.39257e-13
1.39302e-13
1.01289e-17
7.82293e-15
7.82546e-15
1.01463e-17
4.18219e-13
1.0158e-17
1.56356e-14
7.82544e-15
1.56407e-14
3.12737e-14
2.3461e-14
2.29343e-17
1.56534e-14
3.12838e-14
1.56585e-14
3.32038e-17
7.8484e-15
7.84841e-15
1.3884e-13
3.58405e-17
3.32997e-17
1.38838e-13
1.38883e-13
2.78361e-13
1.38928e-13
1.38974e-13
4.17929e-13
2.78496e-13
7.83564e-15
2.34657e-14
2.31875e-17
2.83567e-17
1.56532e-14
2.78446e-13
4.17922e-13
2.78537e-13
7.83565e-15
2.3463e-14
1.56532e-14
1.56558e-14
1.56584e-14
1.56609e-14
1.56635e-14
3.63432e-17
3.89619e-17
2.3481e-14
3.12984e-14
2.34888e-14
2.3494e-14
2.34966e-14
7.87216e-15
1.38402e-13
1.38402e-13
2.7792e-13
5.56864e-13
5.56956e-13
4.17576e-13
4.18768e-17
3.92825e-17
2.78195e-13
2.78241e-13
3.67284e-17
1.38862e-13
1.38814e-13
7.8462e-15
1.56635e-14
7.84885e-15
7.85412e-15
1.56661e-14
1.38717e-13
4.21986e-17
1.56688e-14
1.38715e-13
4.17605e-13
1.38761e-13
1.38807e-13
1.38807e-13
7.84895e-15
7.84896e-15
7.85162e-15
7.85164e-15
1.38757e-13
2.78223e-13
4.17736e-13
1.3885e-13
1.56581e-14
7.84638e-15
3.46336e-17
7.84906e-15
7.84907e-15
7.85175e-15
1.56661e-14
7.85444e-15
1.38701e-13
4.28042e-17
2.34831e-14
1.56715e-14
7.86255e-15
2.34912e-14
1.56796e-14
7.87066e-15
5.64162e-17
1.38408e-13
1.38455e-13
1.38454e-13
1.38501e-13
1.38501e-13
5.12272e-17
1.38547e-13
1.38546e-13
4.86186e-17
1.38593e-13
1.38592e-13
1.3864e-13
7.86015e-15
1.56716e-14
4.87946e-17
2.34911e-14
3.13052e-14
7.8711e-15
5.97821e-17
5.98182e-17
7.87389e-15
5.98906e-17
6.26509e-17
5.99632e-17
2.77797e-13
1.38387e-13
5.73418e-17
1.56853e-14
2.34992e-14
6.29174e-17
7.87961e-15
1.56908e-14
6.85133e-17
1.38233e-13
6.85967e-17
7.87976e-15
1.3823e-13
2.77685e-13
4.17189e-13
2.77781e-13
1.56855e-14
5.78678e-17
2.77778e-13
7.87171e-15
1.56855e-14
6.07718e-17
1.38319e-13
1.38368e-13
1.38367e-13
5.81518e-17
2.77868e-13
2.77867e-13
5.27105e-17
1.56801e-14
1.56801e-14
1.38411e-13
2.77862e-13
2.7791e-13
2.77959e-13
4.17459e-13
4.17508e-13
1.38704e-13
7.85264e-15
1.56662e-14
4.19223e-17
7.85827e-15
2.34825e-14
4.76001e-17
1.3855e-13
1.38599e-13
1.38598e-13
7.85837e-15
7.85839e-15
4.77774e-17
4.7807e-17
7.86125e-15
7.86127e-15
1.38543e-13
5.07452e-17
7.86132e-15
2.77987e-13
5.084e-17
1.56719e-14
5.09034e-17
1.38537e-13
2.77983e-13
1.38586e-13
1.38636e-13
1.38635e-13
1.56691e-14
7.85585e-15
4.83164e-17
7.85872e-15
1.38581e-13
1.3858e-13
1.3863e-13
4.5617e-17
4.27928e-17
4.56743e-17
1.56691e-14
7.85886e-15
1.38575e-13
1.56749e-14
2.34851e-14
5.44433e-17
1.56806e-14
1.56806e-14
7.87333e-15
7.87336e-15
1.38313e-13
1.38312e-13
4.17244e-13
4.17242e-13
1.38515e-13
1.38514e-13
4.90522e-17
1.38564e-13
1.38563e-13
4.62547e-17
7.85919e-15
4.63135e-17
1.3856e-13
1.38611e-13
1.3861e-13
1.38661e-13
1.56692e-14
2.34792e-14
7.86224e-15
4.94593e-17
4.17376e-13
2.7799e-13
4.37242e-17
2.78092e-13
4.17527e-13
1.38758e-13
3.50689e-17
4.1768e-13
2.78244e-13
1.56517e-14
2.92991e-17
3.22497e-17
1.56546e-14
2.78292e-13
5.57107e-13
2.6454e-17
2.35298e-17
1.38961e-13
7.83614e-15
1.56487e-14
7.83909e-15
7.84205e-15
2.95262e-17
7.84502e-15
1.56546e-14
1.38798e-13
4.17661e-13
1.3885e-13
1.38955e-13
2.78332e-13
7.83618e-15
2.37589e-17
4.17813e-13
2.78436e-13
2.78541e-13
1.39111e-13
1.39217e-13
2.78592e-13
8.95021e-18
8.95604e-18
7.82128e-15
1.56336e-14
7.82426e-15
1.39161e-13
1.3916e-13
1.19882e-17
7.82424e-15
1.56365e-14
2.34517e-14
7.83024e-15
4.1785e-13
2.78476e-13
7.82722e-15
1.56394e-14
1.80886e-17
2.78474e-13
5.57377e-13
5.5743e-13
6.04542e-18
7.81511e-15
7.81813e-15
7.81812e-15
9.09205e-18
1.39261e-13
2.78684e-13
1.39315e-13
1.39369e-13
2.78791e-13
7.81198e-15
1.56209e-14
7.815e-15
3.04876e-18
1.39313e-13
3.05281e-18
2.78788e-13
2.78787e-13
7.80882e-15
1.56207e-14
1.01604e-26
3.065e-18
7.81183e-15
1.39365e-13
4.18204e-13
1.39419e-13
2.78948e-13
1.39474e-13
7.79944e-15
1.39528e-13
1.39583e-13
2.79001e-13
2.79056e-13
1.39693e-13
7.79313e-15
1.56048e-14
1.39693e-13
2.79054e-13
1.39748e-13
2.79164e-13
1.39804e-13
4.43512e-16
7.78672e-15
2.34098e-14
1.56013e-14
2.77943e-16
1.39693e-13
2.78318e-16
1.56043e-14
2.78695e-16
7.79898e-15
7.79583e-15
1.56135e-14
2.34218e-14
1.39469e-13
2.78881e-13
2.78937e-13
7.80198e-15
7.79881e-15
1.39524e-13
1.68469e-16
1.3958e-13
1.68698e-16
7.79871e-15
1.3958e-13
2.7899e-13
1.39636e-13
1.56067e-14
2.3418e-14
1.5613e-14
7.8049e-15
1.39466e-13
1.39465e-13
1.13314e-16
1.39522e-13
2.7893e-13
1.39578e-13
1.39635e-13
2.27406e-16
2.84453e-16
2.27719e-16
2.84845e-16
1.39635e-13
2.85237e-16
2.85434e-16
2.79097e-13
2.79097e-13
4.00436e-16
2.34106e-14
3.12215e-14
2.29296e-16
4.18385e-13
2.29613e-16
1.56026e-14
1.39634e-13
4.18441e-13
2.79094e-13
7.7883e-15
1.39806e-13
4.18554e-13
7.78498e-15
7.78171e-15
1.5599e-14
1.55957e-14
1.39691e-13
7.79131e-15
7.79129e-15
2.90028e-16
7.79449e-15
7.79446e-15
7.79769e-15
1.56084e-14
1.56116e-14
1.39516e-13
4.18256e-13
2.78973e-13
1.39632e-13
7.79427e-15
2.92274e-16
2.33984e-16
1.56048e-14
2.79029e-13
2.78971e-13
7.79083e-15
1.56046e-14
2.34151e-14
1.39573e-13
1.39514e-13
7.79729e-15
1.76731e-16
1.76856e-16
1.5611e-14
1.56109e-14
5.90777e-17
1.39454e-13
1.39453e-13
7.80375e-15
1.56141e-14
1.56174e-14
7.81034e-15
2.78727e-13
1.39333e-13
5.94574e-17
1.20859e-25
1.56172e-14
1.56205e-14
3.34099e-18
1.39272e-13
7.81357e-15
1.56238e-14
6.70116e-18
1.39211e-13
1.39271e-13
4.1805e-13
1.3933e-13
1.3945e-13
1.39389e-13
7.80337e-15
2.78838e-13
1.39449e-13
1.561e-14
7.8033e-15
1.56167e-14
1.56167e-14
1.39327e-13
1.39327e-13
1.39387e-13
2.78773e-13
6.05802e-17
1.56131e-14
1.56165e-14
1.81317e-25
2.7871e-13
2.78771e-13
2.78831e-13
1.21779e-16
1.82801e-16
1.21506e-16
8.7994e-16
2.78422e-13
1.3887e-13
2.79012e-13
4.18394e-13
1.3975e-13
1.39812e-13
1.39812e-13
2.79255e-13
4.91408e-16
2.33946e-14
7.7821e-15
4.30931e-16
1.55951e-14
7.78545e-15
3.08488e-16
2.79131e-13
2.79069e-13
7.78186e-15
7.78529e-15
4.33481e-16
1.39751e-13
6.97328e-13
4.1857e-13
2.33867e-14
7.77466e-15
1.39938e-13
2.79315e-13
1.4e-13
1.40063e-13
7.77096e-15
7.76742e-15
1.40001e-13
1.40064e-13
1.40064e-13
7.51437e-16
7.51998e-16
2.33858e-14
1.55764e-14
1.3994e-13
1.40003e-13
6.29014e-16
2.33889e-14
3.12016e-14
5.04345e-16
1.39752e-13
2.33993e-14
1.55936e-14
3.16165e-16
3.16403e-16
2.7906e-13
4.18432e-13
1.55933e-14
1.55897e-14
7.79129e-15
3.81408e-16
1.39625e-13
7.78764e-15
1.39688e-13
3.18804e-16
2.34055e-14
1.56001e-14
2.78929e-13
2.78929e-13
1.39688e-13
1.39688e-13
2.7912e-13
3.849e-16
2.33979e-14
3.85488e-16
1.39688e-13
7.78721e-15
2.34048e-14
2.34084e-14
1.56068e-14
1.29087e-16
4.1816e-13
1.39494e-13
7.79424e-15
1.94226e-16
7.79782e-15
7.7978e-15
1.29783e-16
1.29884e-16
1.561e-14
3.12273e-14
1.35434e-26
7.81591e-15
2.34258e-14
7.81955e-15
1.09755e-17
1.391e-13
1.09925e-17
1.1001e-17
4.17886e-13
5.57245e-13
5.57441e-13
1.39426e-13
7.79373e-15
2.7885e-13
1.97411e-16
7.79365e-15
1.39556e-13
1.39556e-13
1.39622e-13
2.64244e-16
1.55982e-14
7.7935e-15
1.39556e-13
2.78912e-13
7.79342e-15
1.55979e-14
1.39555e-13
1.39555e-13
2.66118e-16
7.79329e-15
7.79326e-15
2.00061e-16
1.39555e-13
2.78909e-13
1.39621e-13
1.39688e-13
1.39688e-13
4.02026e-16
1.39755e-13
2.79108e-13
4.18527e-13
5.3774e-16
2.33864e-14
2.79242e-13
2.79174e-13
6.74319e-16
1.55819e-14
1.5578e-14
1.39823e-13
1.55855e-14
1.55855e-14
7.78511e-15
4.06861e-16
2.79037e-13
4.07514e-16
1.39824e-13
1.39756e-13
5.44664e-16
4.76964e-16
7.7772e-15
7.78098e-15
1.39825e-13
1.39757e-13
1.55847e-14
2.33962e-14
4.11142e-16
4.18311e-13
2.79102e-13
4.80832e-16
1.55844e-14
7.78062e-15
4.13147e-16
1.39757e-13
2.79101e-13
4.18513e-13
4.18582e-13
7.76877e-15
7.76485e-15
2.79308e-13
1.40035e-13
7.63014e-16
1.40105e-13
1.40105e-13
7.76065e-15
8.3511e-16
7.66146e-16
8.36483e-16
7.67406e-16
1.55677e-14
7.6867e-16
6.99367e-16
7.69938e-16
1.40039e-13
1.40109e-13
1.4011e-13
8.42712e-16
8.4341e-16
2.33743e-14
1.5567e-14
2.79307e-13
2.79378e-13
7.76339e-16
8.47619e-16
2.79449e-13
2.79519e-13
2.7959e-13
1.40327e-13
2.79733e-13
2.79733e-13
2.33533e-14
1.55462e-14
2.79663e-13
2.79734e-13
1.14059e-15
1.21289e-15
7.7429e-15
1.21493e-15
1.40404e-13
1.21698e-15
7.74262e-15
3.1159e-14
1.55533e-14
1.40264e-13
2.79594e-13
1.40337e-13
1.08017e-15
7.74617e-15
1.55528e-14
7.75008e-15
1.55608e-14
1.55607e-14
7.76205e-15
1.40124e-13
4.18706e-13
4.18851e-13
1.40271e-13
2.33587e-14
7.7495e-15
1.40199e-13
9.47368e-16
1.55599e-14
2.33663e-14
8.03683e-16
7.31248e-16
1.55678e-14
7.32506e-16
6.59823e-16
7.76529e-15
1.39984e-13
4.18629e-13
1.40058e-13
7.75684e-15
7.76091e-15
1.55672e-14
1.55712e-14
7.76902e-15
7.77312e-15
5.92113e-16
1.39839e-13
2.79232e-13
2.79232e-13
7.42721e-16
1.55707e-14
7.76446e-15
5.95733e-16
6.70786e-16
5.96776e-16
2.79307e-13
2.79232e-13
1.5566e-14
1.55701e-14
1.55743e-14
1.55784e-14
7.77655e-15
1.55867e-14
7.78068e-15
1.39616e-13
3.76607e-16
3.7694e-16
7.78475e-15
7.78472e-15
7.78892e-15
7.78888e-15
2.27167e-16
2.78852e-13
2.78852e-13
7.7845e-15
7.78447e-15
3.04239e-16
2.78926e-13
2.78926e-13
1.39768e-13
2.79078e-13
1.39845e-13
1.5577e-14
2.33826e-14
7.77986e-15
7.78411e-15
7.78408e-15
1.39615e-13
4.18231e-13
2.79e-13
1.55808e-14
7.77526e-15
1.39692e-13
4.63373e-16
1.3977e-13
2.79075e-13
1.55804e-14
2.33814e-14
3.87897e-16
7.7836e-15
7.78357e-15
7.78789e-15
1.39615e-13
2.33799e-16
3.90045e-14
1.55974e-14
7.80524e-15
7.82181e-17
5.57128e-13
1.3938e-13
7.79199e-15
7.79636e-15
1.39458e-13
2.78679e-13
7.79187e-15
7.79184e-15
1.57734e-16
1.5788e-16
1.58026e-16
1.39457e-13
1.58318e-16
7.79167e-15
1.58612e-16
2.78753e-13
5.57346e-13
2.78911e-13
1.39774e-13
4.7805e-16
5.58245e-16
2.79069e-13
7.77349e-15
2.33786e-14
1.39775e-13
5.57577e-13
5.61383e-16
7.76426e-15
5.62437e-16
6.43389e-16
5.63494e-16
1.55732e-14
2.33823e-14
7.7775e-15
7.78651e-15
7.78195e-15
1.39533e-13
1.39614e-13
3.24437e-16
1.39696e-13
1.39614e-13
4.88041e-16
2.78985e-13
4.8897e-16
2.33813e-14
4.89902e-16
1.39614e-13
7.77689e-15
2.78983e-13
1.39696e-13
5.74289e-16
2.79065e-13
1.39861e-13
1.39943e-13
6.58853e-16
7.41923e-16
6.60122e-16
1.55668e-14
7.76714e-15
1.39863e-13
5.7984e-16
7.76698e-15
5.80963e-16
7.77152e-15
7.77148e-15
1.55802e-14
7.77604e-15
2.78895e-13
1.39698e-13
5.01366e-16
1.39782e-13
5.02345e-16
1.5575e-14
1.55797e-14
2.33882e-14
2.33928e-14
1.55983e-14
7.79914e-15
7.80384e-15
1.56076e-14
1.56123e-14
7.81326e-15
1.42262e-17
7.81799e-15
7.81798e-15
1.90246e-17
7.82274e-15
2.34301e-14
7.82751e-15
1.38677e-13
7.8323e-15
1.56359e-14
3.35253e-17
1.38588e-13
7.83714e-15
1.56407e-14
3.8468e-17
4.33198e-17
3.12524e-14
1.56503e-14
1.38236e-13
1.38321e-13
1.3832e-13
7.8518e-15
7.85183e-15
7.85671e-15
5.34279e-17
2.77494e-13
2.77579e-13
4.87184e-17
4.38911e-17
4.16928e-13
1.38481e-13
1.38655e-13
1.38566e-13
7.83256e-15
1.38652e-13
2.77915e-13
1.38738e-13
1.38825e-13
1.38824e-13
2.78174e-13
1.97475e-17
7.81289e-15
1.97881e-17
2.34237e-14
7.82277e-15
2.9774e-17
1.56307e-14
2.98356e-17
2.77898e-13
7.83275e-15
3.90391e-14
2.34434e-14
1.56556e-14
1.56556e-14
1.38185e-13
6.01689e-17
1.38272e-13
2.77438e-13
5.0298e-17
1.38358e-13
5.04034e-17
1.56506e-14
5.05093e-17
1.38262e-13
5.06156e-17
7.85321e-15
1.56558e-14
2.34634e-14
7.86348e-15
1.37981e-13
6.62184e-17
7.86871e-15
7.86876e-15
1.37975e-13
4.16475e-13
1.38063e-13
5.63892e-17
7.86389e-15
7.8588e-15
2.77305e-13
6.17788e-17
1.38237e-13
4.1664e-13
5.5607e-13
5.56159e-13
2.7794e-13
2.59075e-17
1.38876e-13
1.38783e-13
7.81767e-15
2.3427e-14
1.56249e-14
2.77838e-13
1.38685e-13
2.61327e-17
1.38777e-13
2.78019e-13
1.56248e-14
7.81764e-15
2.77922e-13
2.10434e-17
7.8229e-15
7.8229e-15
1.3877e-13
2.78009e-13
4.17342e-13
4.17435e-13
2.78384e-13
2.78478e-13
1.39333e-13
1.8986e-16
1.39429e-13
2.57628e-17
7.80394e-15
8.40332e-16
1.55924e-14
7.79082e-15
6.03681e-26
7.79612e-15
2.7847e-13
2.78469e-13
7.79065e-15
7.79062e-15
9.63149e-17
1.55973e-14
1.55973e-14
1.39136e-13
1.39135e-13
1.39232e-13
2.78462e-13
1.39328e-13
7.79033e-15
1.55915e-14
9.74081e-17
4.17688e-13
1.39327e-13
1.39522e-13
2.78652e-13
1.55802e-14
2.33812e-14
7.79003e-15
1.39325e-13
1.39325e-13
7.78992e-15
1.9728e-16
1.39324e-13
1.97735e-16
7.78979e-15
1.98191e-16
9.92103e-17
2.33913e-14
7.79523e-15
7.80635e-15
4.05797e-26
2.78244e-13
1.39221e-13
6.03631e-26
1.00137e-16
1.56013e-14
1.55956e-14
1.1261e-17
5.63709e-18
4.17455e-13
4.17554e-13
1.39319e-13
7.78917e-15
2.02401e-16
1.0132e-16
2.0288e-16
2.78534e-13
2.78635e-13
1.39521e-13
7.7775e-15
2.33781e-14
3.06496e-16
1.39316e-13
7.78304e-15
2.05064e-16
2.7863e-13
2.05556e-16
1.55773e-14
2.0605e-16
2.06298e-16
2.06547e-16
1.39417e-13
2.07046e-16
3.10944e-16
7.78839e-15
2.33825e-14
1.55941e-14
0
5.84284e-18
1.55998e-14
1.56056e-14
7.81159e-15
1.38892e-13
1.76359e-17
1.56114e-14
7.81745e-15
1.56231e-14
2.36303e-17
1.3857e-13
1.56231e-14
7.82931e-15
1.38567e-13
1.56349e-14
1.56289e-14
2.77551e-13
4.16857e-13
2.77761e-13
2.77973e-13
2.77971e-13
1.38985e-13
4.17382e-13
1.39091e-13
1.39305e-13
2.78395e-13
2.15379e-16
1.39412e-13
7.7872e-15
2.33796e-14
7.79319e-15
0
1.39195e-13
7.79918e-15
7.79306e-15
6.10309e-18
1.39193e-13
1.39083e-13
7.79294e-15
0
0
0
1.3919e-13
1.3919e-13
1.55917e-14
7.79272e-15
2.78267e-13
2.78377e-13
2.78487e-13
2.78597e-13
2.78707e-13
1.39631e-13
5.56679e-16
5.57405e-16
1.39744e-13
2.78929e-13
1.39856e-13
1.39969e-13
7.85494e-16
2.33453e-14
1.5553e-14
1.39746e-13
5.64033e-16
2.79041e-13
2.78928e-13
9.06045e-16
1.39974e-13
1.40088e-13
1.40089e-13
1.55392e-14
1.55391e-14
7.75351e-15
7.75342e-15
6.86828e-16
7.75968e-15
6.88677e-16
5.74671e-16
1.55576e-14
7.76583e-15
4.61603e-16
1.55702e-14
7.77211e-15
2.78578e-13
3.48088e-16
7.77193e-15
1.39521e-13
3.49515e-16
1.55696e-14
2.3374e-14
2.3397e-16
3.6196e-25
2.34615e-16
1.39169e-13
1.39404e-13
1.39286e-13
1.39521e-13
7.78443e-15
2.33664e-14
1.1845e-16
1.55885e-14
2.33861e-14
1.56018e-14
3.12034e-14
2.34125e-14
4.01566e-17
4.0213e-17
4.02697e-17
1.38442e-13
4.16765e-13
2.77721e-13
7.81756e-15
1.56149e-14
7.82434e-15
1.38555e-13
7.83115e-15
2.34188e-14
1.38429e-13
1.38306e-13
1.38548e-13
2.77581e-13
1.38668e-13
2.74263e-17
7.81761e-15
2.77819e-13
2.77817e-13
1.37927e-17
1.56076e-14
2.34045e-14
7.82456e-15
2.77685e-13
4.16835e-13
4.17081e-13
1.39342e-17
2.33902e-14
1.56074e-14
7.81766e-15
2.77797e-13
5.56092e-13
2.78045e-13
2.78295e-13
2.78294e-13
2.52015e-16
2.5239e-16
2.52767e-16
2.53144e-16
1.39398e-13
1.39398e-13
1.39525e-13
2.78668e-13
5.10102e-16
7.76049e-15
1.39653e-13
5.12418e-16
2.33526e-14
5.13975e-16
1.39397e-13
5.15541e-16
1.39526e-13
2.78794e-13
1.39656e-13
1.55484e-14
6.49377e-16
5.20301e-16
1.55553e-14
1.55625e-14
1.55698e-14
7.78117e-15
1.31085e-16
4.17532e-13
4.1753e-13
1.39659e-13
5.27616e-16
1.39792e-13
1.3966e-13
7.75106e-15
6.6367e-16
2.78924e-13
1.39795e-13
9.33547e-16
1.39929e-13
7.74297e-15
9.38e-16
8.0528e-16
2.79193e-13
2.79059e-13
7.7273e-15
1.08059e-15
7.7346e-15
1.55297e-14
1.55371e-14
8.15681e-16
1.39803e-13
1.3994e-13
8.19655e-16
7.74138e-15
1.5544e-14
2.33388e-14
2.33541e-14
1.55667e-14
7.78718e-15
1.39256e-13
2.78234e-13
2.77274e-16
2.77733e-16
2.78193e-16
2.78654e-16
2.79118e-16
1.39393e-13
2.80049e-16
4.20776e-16
1.39393e-13
4.22188e-16
4.22898e-16
1.55653e-14
7.77069e-15
1.39251e-13
2.83841e-16
7.77845e-15
7.77839e-15
1.3925e-13
1.3925e-13
7.77822e-15
7.77816e-15
7.78615e-15
7.78611e-15
0
1.55882e-14
1.55882e-14
1.62342e-17
2.77914e-13
1.38811e-13
7.79396e-15
7.8021e-15
7.80209e-15
1.64049e-17
7.81027e-15
7.81027e-15
2.77754e-13
1.38655e-13
2.33894e-14
1.65794e-17
3.32177e-17
1.56039e-14
3.33362e-17
1.38498e-13
7.82699e-15
7.81864e-15
1.38343e-13
3.36364e-17
3.36972e-17
3.37581e-17
7.82716e-15
7.82719e-15
4.24281e-17
1.5629e-14
2.34222e-14
1.56461e-14
7.86154e-15
1.3771e-13
4.15878e-13
6.87619e-17
1.56377e-14
7.86201e-15
6.91451e-17
1.37692e-13
7.8623e-15
1.3784e-13
4.15844e-13
7.85387e-15
7.84521e-15
7.00572e-17
7.85412e-15
7.863e-15
1.3782e-13
1.3766e-13
2.34396e-14
7.08595e-17
4.15641e-13
1.37805e-13
2.77035e-13
4.16105e-13
1.38275e-13
3.58408e-17
1.38431e-13
3.59801e-17
2.70377e-17
3.61206e-17
7.81932e-15
7.82841e-15
2.34127e-14
7.83759e-15
1.37928e-13
7.84684e-15
7.84691e-15
1.37919e-13
2.7698e-13
4.16205e-13
2.77303e-13
1.38568e-13
1.38566e-13
2.77791e-13
1.86062e-17
1.55833e-14
1.86816e-17
1.38725e-13
5.55899e-13
2.77948e-13
3.36145e-16
4.17338e-13
3.37527e-16
1.55449e-14
3.38921e-16
3.39623e-16
3.40328e-16
1.39394e-13
2.78446e-13
5.13693e-16
1.55439e-14
7.76222e-15
1.39394e-13
3.45352e-16
7.76193e-15
7.77155e-15
7.77147e-15
1.39221e-13
1.74519e-16
3.49786e-16
2.78264e-13
1.39395e-13
7.76114e-15
1.39572e-13
4.1748e-13
7.08686e-16
7.74084e-15
7.11781e-16
1.39753e-13
1.39754e-13
1.55307e-14
1.55305e-14
7.76013e-15
5.40932e-16
3.61423e-16
1.55501e-14
1.39397e-13
2.78249e-13
5.47002e-16
5.48233e-16
1.39581e-13
5.50714e-16
2.78796e-13
1.39583e-13
7.72779e-15
1.39769e-13
9.28373e-16
9.30507e-16
1.39959e-13
2.78986e-13
1.40149e-13
7.71599e-15
2.3295e-14
1.55157e-14
7.74715e-15
1.3978e-13
2.78612e-13
9.52444e-16
9.54699e-16
9.56966e-16
9.59244e-16
7.7354e-15
7.73523e-15
7.72919e-16
1.55349e-14
1.55347e-14
1.55564e-14
2.33453e-14
7.789e-15
1.09853e-17
1.10121e-17
1.38813e-13
7.79991e-15
1.55776e-14
1.55998e-14
2.33885e-14
4.4706e-17
1.38006e-13
4.49299e-17