/*--------------------------------*- C++ -*----------------------------------*\
| =========                 |                                                 |
| \\      /  F ield         | OpenFOAM: The Open Source CFD Toolbox           |
|  \\    /   O peration     | Version:  2.3.1                                 |
|   \\  /    A nd           | Web:      www.OpenFOAM.org                      |
|    \\/     M anipulation  |                                                 |
\*---------------------------------------------------------------------------*/
FoamFile
{
    version     2.0;
    format      ascii;
    class       volScalarField;
    location    "1e-06";
    object      muSgs;
}
// * * * * * * * * * * * * * * * * * * * * * * * * * * * * * * * * * * * * * //

dimensions      [1 -1 -1 0 0 0 0];

internalField   nonuniform List<scalar> 
10000
(
7.83414e-15
1.56575e-14
1.21103e-25
1.39612e-13
1.56483e-14
1.56483e-14
4.18863e-13
4.18862e-13
7.82256e-15
7.82255e-15
7.8241e-15
1.56482e-14
1.55295e-18
2.79221e-13
1.39611e-13
1.39638e-13
1.39638e-13
2.77721e-17
2.79303e-13
1.39665e-13
1.56434e-14
7.8209e-15
2.78284e-17
7.82244e-15
2.7851e-17
1.21121e-25
7.82242e-15
1.56479e-14
4.07167e-26
2.79217e-13
2.79272e-13
1.39636e-13
7.8208e-15
1.56463e-14
1.56463e-14
7.82548e-15
1.39607e-13
3.13757e-18
1.56478e-14
7.82702e-15
7.82702e-15
1.39551e-13
1.3955e-13
2.79213e-13
2.79212e-13
0
7.82383e-15
1.39634e-13
6.98141e-13
2.79295e-13
1.39746e-13
8.44771e-17
1.56397e-14
1.56428e-14
2.34666e-14
1.56459e-14
1.56475e-14
1.58166e-18
4.18841e-13
2.79236e-13
2.82631e-17
2.82747e-17
2.82863e-17
7.82212e-15
7.82211e-15
7.82369e-15
1.39631e-13
2.79234e-13
2.83561e-17
2.83678e-17
4.18921e-13
1.39659e-13
7.81727e-15
5.6829e-17
8.52787e-17
1.39687e-13
2.79345e-13
8.53842e-17
7.81561e-15
8.54547e-17
7.81719e-15
2.34659e-14
2.34659e-14
0
1.39629e-13
4.18887e-13
2.85674e-17
8.57376e-17
5.58542e-13
2.79342e-13
1.43074e-16
1.43133e-16
4.19027e-13
2.79399e-13
7.81062e-15
2.00718e-16
2.00802e-16
1.39828e-13
2.79455e-13
2.29774e-16
2.58603e-16
2.79483e-13
7.80891e-15
2.34541e-14
1.56339e-14
1.56355e-14
1.39799e-13
2.79396e-13
7.81206e-15
3.12821e-14
2.34604e-14
1.56418e-14
1.56418e-14
2.88895e-17
2.89016e-17
2.89136e-17
1.39654e-13
1.39654e-13
1.39682e-13
5.79239e-17
8.69222e-17
1.39682e-13
1.56416e-14
1.56416e-14
7.82162e-15
2.90347e-17
7.82323e-15
7.82159e-15
1.62889e-18
1.39623e-13
5.58462e-13
2.79274e-13
7.81829e-15
1.56415e-14
1.56431e-14
1.56447e-14
3.91158e-14
3.12942e-14
1.39476e-13
2.79097e-13
7.82967e-15
7.82803e-15
2.79096e-13
6.55672e-18
7.82801e-15
1.39504e-13
1.39503e-13
4.92583e-18
7.82799e-15
7.82798e-15
2.79123e-13
1.39503e-13
7.82632e-15
1.5651e-14
4.9404e-18
2.79092e-13
4.94457e-18
7.82794e-15
4.94875e-18
2.7912e-13
2.79149e-13
1.3956e-13
1.65238e-18
2.79207e-13
5.58443e-13
4.18884e-13
1.39707e-13
7.81629e-15
2.34621e-14
2.34637e-14
1.56441e-14
2.34687e-14
1.56474e-14
1.56507e-14
1.56507e-14
8.30757e-18
2.79085e-13
2.79084e-13
1.39527e-13
1.39527e-13
7.82615e-15
3.33152e-18
1.39526e-13
3.33436e-18
7.82612e-15
3.3372e-18
2.79141e-13
2.7917e-13
1.67074e-18
1.56455e-14
2.34699e-14
2.34715e-14
6.69437e-18
1.39465e-13
6.70009e-18
6.70295e-18
1.39494e-13
6.70869e-18
7.82771e-15
1.39494e-13
4.1872e-13
2.79136e-13
7.82433e-15
7.82432e-15
7.826e-15
2.79165e-13
2.79135e-13
1.56452e-14
1.6851e-18
7.82596e-15
2.34694e-14
1.56502e-14
6.75198e-18
1.39461e-13
7.82931e-15
2.79102e-13
2.79071e-13
1.56484e-14
5.07707e-18
2.34743e-14
3.12951e-14
1.56569e-14
1.56569e-14
1.39338e-13
1.52706e-17
1.35798e-17
2.78946e-13
1.39367e-13
2.79006e-13
4.18615e-13
1.39457e-13
6.8075e-18
7.82922e-15
7.82922e-15
8.52042e-18
1.56533e-14
7.83091e-15
1.39395e-13
2.79033e-13
4.18641e-13
1.39486e-13
5.12777e-18
7.82747e-15
1.56498e-14
2.34738e-14
8.56113e-18
1.39393e-13
7.83087e-15
2.7903e-13
4.18636e-13
1.39484e-13
2.7912e-13
2.7912e-13
2.79181e-13
4.18786e-13
1.39636e-13
7.81879e-15
1.5641e-14
1.56427e-14
2.42142e-25
1.39574e-13
0
2.79209e-13
2.79209e-13
7.81871e-15
1.56409e-14
7.82042e-15
0
0
0
0
7.82211e-15
7.8221e-15
7.82383e-15
1.56459e-14
3.46955e-18
7.82727e-15
3.47259e-18
2.79081e-13
2.79142e-13
5.58346e-13
2.79204e-13
1.56406e-14
3.12846e-14
1.5644e-14
3.4848e-18
3.48634e-18
3.48787e-18
7.82546e-15
1.56474e-14
5.23871e-18
6.98803e-18
7.82718e-15
2.79076e-13
2.79075e-13
3.50017e-18
2.34692e-14
1.56473e-14
1.39443e-13
7.01271e-18
1.56508e-14
7.0189e-18
1.0533e-17
1.39473e-13
4.18608e-13
5.27349e-18
5.27582e-18
7.8271e-15
7.82709e-15
1.56507e-14
1.56506e-14
1.0575e-17
1.05797e-17
7.83236e-15
1.39408e-13
5.58168e-13
4.18633e-13
2.79099e-13
1.39534e-13
1.56452e-14
1.56452e-14
5.31102e-18
4.18693e-13
4.18693e-13
7.82169e-15
7.82168e-15
1.39564e-13
2.79159e-13
4.18786e-13
4.18817e-13
6.9807e-13
6.98101e-13
1.39849e-13
7.8056e-15
2.34488e-14
7.80735e-15
1.39785e-13
2.22752e-16
2.22851e-16
1.39817e-13
1.39817e-13
2.55029e-16
7.80725e-15
1.56288e-14
2.34521e-14
7.81078e-15
2.79313e-13
2.79345e-13
1.39784e-13
7.80894e-15
1.56304e-14
2.34536e-14
2.34554e-14
7.81606e-15
1.56393e-14
6.41584e-17
1.39591e-13
6.4216e-17
2.79214e-13
6.42738e-17
1.56374e-14
6.43316e-17
4.18803e-13
2.79245e-13
1.28837e-16
1.28895e-16
7.81412e-15
1.29011e-16
2.79276e-13
1.39718e-13
7.81227e-15
7.81225e-15
1.39718e-13
1.29361e-16
1.61774e-16
7.81402e-15
1.6192e-16
9.71961e-17
1.56334e-14
1.5637e-14
2.34582e-14
3.24574e-17
0
1.56406e-14
0
2.79141e-13
1.39587e-13
3.25457e-17
3.25605e-17
1.39619e-13
1.39619e-13
1.56386e-14
6.52393e-17
4.18757e-13
2.79237e-13
9.79924e-17
1.30716e-16
1.56367e-14
2.34559e-14
1.56403e-14
1.39618e-13
1.39552e-13
1.56384e-14
7.82104e-15
6.7827e-27
2.79135e-13
3.63186e-25
1.39617e-13
0
6.57463e-17
2.79167e-13
6.58064e-17
1.39649e-13
6.58666e-17
7.81542e-15
7.81725e-15
1.56382e-14
3.29936e-17
7.82092e-15
1.564e-14
1.8512e-18
1.39549e-13
4.18712e-13
1.39581e-13
1.39647e-13
1.39614e-13
1.56361e-14
7.81713e-15
7.81898e-15
2.34606e-14
2.34625e-14
3.72115e-18
5.58429e-18
1.56453e-14
5.58943e-18
7.82824e-15
7.82637e-15
1.39413e-13
1.5649e-14
2.34697e-14
1.56527e-14
2.34753e-14
1.49602e-17
2.78823e-13
7.83568e-15
1.56564e-14
1.39277e-13
1.39243e-13
1.50017e-17
2.78854e-13
1.50156e-17
1.31447e-17
2.78886e-13
2.78919e-13
1.39375e-13
2.78985e-13
4.18562e-13
1.39476e-13
2.34655e-14
2.34655e-14
2.78984e-13
1.39407e-13
1.56468e-14
7.8281e-15
7.82998e-15
9.45023e-18
2.78948e-13
4.18556e-13
2.79014e-13
3.78713e-18
3.78889e-18
2.79081e-13
3.79242e-18
1.56409e-14
2.34652e-14
3.12856e-14
1.56504e-14
2.78943e-13
4.18482e-13
1.39437e-13
1.39437e-13
7.82611e-15
1.39471e-13
4.18581e-13
3.81372e-18
1.56426e-14
3.81729e-18
2.79041e-13
3.82087e-18
7.82224e-15
1.39503e-13
2.79074e-13
1.91402e-18
7.82029e-15
1.56425e-14
1.91671e-18
5.75284e-18
1.56424e-14
1.3938e-13
6.97528e-13
5.58298e-13
2.79208e-13
4.18777e-13
1.39707e-13
1.71765e-16
2.7931e-13
2.7931e-13
2.40812e-16
2.40925e-16
7.80665e-15
2.34469e-14
3.1269e-14
1.56325e-14
7.81626e-15
6.90308e-17
4.18737e-13
2.79204e-13
1.38257e-16
1.38323e-16
1.38388e-16
1.38454e-16
1.38519e-16
1.38585e-16
7.81227e-15
1.56323e-14
1.56342e-14
1.56361e-14
7.81806e-15
2.79131e-13
2.79131e-13
2.792e-13
6.95887e-17
2.34521e-14
7.81605e-15
7.81799e-15
3.48605e-17
1.39564e-13
7.81796e-15
7.81795e-15
0
0
0
0
0
1.39563e-13
7.81985e-15
2.34576e-14
1.56416e-14
1.39492e-13
4.18582e-13
2.79089e-13
1.39562e-13
7.81782e-15
7.81781e-15
1.39562e-13
1.39561e-13
3.52115e-17
3.52284e-17
3.52453e-17
1.39596e-13
1.39596e-13
7.05919e-17
7.06258e-17
7.81573e-15
7.81572e-15
7.81769e-15
7.81768e-15
2.79119e-13
1.39559e-13
7.81567e-15
3.54488e-17
3.54659e-17
3.5483e-17
3.55001e-17
7.81761e-15
3.55343e-17
1.39558e-13
7.81758e-15
1.56371e-14
2.42059e-25
2.7908e-13
2.79115e-13
3.56544e-17
1.39628e-13
3.56889e-17
7.8135e-15
1.39592e-13
1.5635e-14
7.1516e-17
2.42025e-25
2.34544e-14
6.78182e-27
2.79076e-13
2.79111e-13
1.39591e-13
7.17589e-17
2.79182e-13
1.39627e-13
1.43727e-16
2.79217e-13
1.39698e-13
1.39734e-13
1.80008e-16
7.80723e-15
1.56286e-14
1.56286e-14
7.81325e-15
1.39662e-13
2.79179e-13
1.44498e-16
1.39697e-13
1.44639e-16
1.56284e-14
7.81114e-15
1.39661e-13
7.81315e-15
1.56303e-14
7.25315e-17
7.81515e-15
1.56343e-14
2.34555e-14
7.81918e-15
4.07396e-18
2.03798e-18
7.82324e-15
1.56403e-14
1.56444e-14
1.56444e-14
7.82934e-15
1.39367e-13
2.7888e-13
1.39404e-13
1.39403e-13
6.14399e-18
7.82522e-15
7.82521e-15
8.20408e-18
1.39402e-13
4.18499e-13
2.78987e-13
1.39511e-13
1.39511e-13
1.5638e-14
1.5638e-14
4.11823e-18
4.12026e-18
4.1223e-18
1.39473e-13
7.82307e-15
7.821e-15
1.39436e-13
2.79019e-13
1.39472e-13
7.8189e-15
2.06931e-18
2.34587e-14
2.34587e-14
8.28956e-18
8.29366e-18
4.18487e-13
2.78942e-13
7.8209e-15
4.15507e-18
1.3947e-13
1.3947e-13
2.08063e-18
7.82086e-15
2.0827e-18
1.39469e-13
1.39506e-13
4.18593e-13
4.1863e-13
1.39618e-13
1.11845e-16
1.11901e-16
1.39654e-13
1.39654e-13
1.49424e-16
1.49499e-16
1.39691e-13
2.79233e-13
7.80816e-15
1.56247e-14
7.81023e-15
1.49948e-16
2.79194e-13
1.50098e-16
1.87716e-16
7.81017e-15
1.87904e-16
5.58273e-13
2.79268e-13
1.39803e-13
1.39803e-13
1.56202e-14
7.80162e-15
1.39765e-13
1.56222e-14
7.80369e-15
1.88849e-16
1.56242e-14
7.80787e-15
7.80998e-15
1.56284e-14
1.13595e-16
7.57682e-17
1.1371e-16
7.58446e-17
1.56304e-14
2.34509e-14
2.3453e-14
1.56389e-14
4.26038e-18
6.3938e-18
4.26469e-18
2.78958e-13
4.269e-18
2.13558e-18
1.39459e-13
7.82044e-15
3.12753e-14
2.34591e-14
7.82898e-15
1.07104e-17
1.39305e-13
1.07213e-17
1.39343e-13
2.78877e-13
8.5901e-18
1.39419e-13
7.8268e-15
1.56407e-14
2.78874e-13
1.39379e-13
7.82463e-15
7.82462e-15
8.62513e-18
2.78911e-13
2.7891e-13
4.31916e-18
7.82243e-15
4.32357e-18
1.39416e-13
1.39454e-13
1.56405e-14
3.90925e-14
1.56448e-14
1.30105e-17
2.78829e-13
2.78828e-13
4.18436e-13
2.78905e-13
1.39491e-13
6.97571e-13
4.18589e-13
1.39646e-13
2.79175e-13
1.55597e-16
7.80704e-15
1.39685e-13
1.55837e-16
7.80699e-15
1.56271e-14
7.80915e-15
7.8079e-17
1.17179e-16
1.39606e-13
4.187e-13
1.1736e-16
2.34404e-14
1.17481e-16
2.79171e-13
2.79171e-13
1.96105e-16
7.8068e-15
7.80678e-15
1.57128e-16
7.80895e-15
7.80894e-15
1.39643e-13
2.79169e-13
4.18733e-13
1.9702e-16
1.56199e-14
1.97225e-16
1.56243e-14
1.56243e-14
1.18519e-16
1.18581e-16
1.18642e-16
1.18704e-16
1.39642e-13
1.18827e-16
1.56263e-14
1.56285e-14
2.34483e-14
7.81536e-15
1.39483e-13
0
7.81755e-15
1.56351e-14
1.56373e-14
7.82199e-15
1.39402e-13
7.82421e-15
2.3457e-14
1.56439e-14
7.82866e-15
2.34658e-14
1.56484e-14
1.3916e-13
1.392e-13
2.7872e-13
7.83313e-15
7.83088e-15
4.18237e-13
2.78758e-13
1.12426e-17
1.39318e-13
2.78836e-13
1.39358e-13
6.75973e-18
1.39397e-13
6.76685e-18
4.51361e-18
6.77398e-18
7.82182e-15
6.78112e-18
2.78913e-13
1.39396e-13
7.81952e-15
1.5639e-14
2.34563e-14
2.34608e-14
1.13437e-17
1.39232e-13
1.39313e-13
4.18303e-13
1.39353e-13
7.824e-15
6.82784e-18
1.39352e-13
2.78907e-13
1.39393e-13
2.28078e-18
1.39433e-13
1.39473e-13
1.39473e-13
1.39514e-13
4.18541e-13
1.39554e-13
7.81019e-15
7.81247e-15
7.81245e-15
2.34488e-14
2.34488e-14
4.59075e-18
1.56386e-14
2.34556e-14
9.19619e-18
1.39306e-13
9.20602e-18
9.21093e-18
7.82616e-15
7.82615e-15
1.15321e-17
1.15383e-17
1.39304e-13
4.18325e-13
1.39345e-13
4.62522e-18
6.94154e-18
7.82148e-15
6.94899e-18
1.39385e-13
4.18403e-13
2.78935e-13
0
2.79017e-13
2.79017e-13
7.81212e-15
7.81211e-15
4.18565e-13
4.18564e-13
1.39674e-13
1.56241e-14
7.80505e-15
8.33053e-17
1.56241e-14
8.33953e-17
1.3959e-13
8.34854e-17
1.25296e-16
4.18601e-13
2.79137e-13
1.39715e-13
1.39715e-13
2.5127e-16
2.51406e-16
2.51543e-16
7.80248e-15
7.80246e-15
2.0996e-16
1.39714e-13
2.79218e-13
1.39756e-13
1.56165e-14
2.3433e-14
1.56212e-14
7.80704e-15
1.39629e-13
7.80938e-15
2.34399e-14
7.81172e-15
2.79047e-13
4.22901e-17
7.80931e-15
4.23362e-17
7.81165e-15
4.23825e-17
1.39543e-13
4.24288e-17
8.49041e-17
2.79044e-13
8.49971e-17
1.39628e-13
4.18585e-13
1.3967e-13
2.12959e-16
7.80435e-15
1.56206e-14
2.34392e-14
1.28056e-16
2.7904e-13
1.39627e-13
2.79125e-13
1.71117e-16
7.80422e-15
1.71306e-16
7.80659e-15
1.56227e-14
1.56251e-14
7.81135e-15
1.3954e-13
7.81373e-15
2.34436e-14
7.81612e-15
7.81852e-15
7.81851e-15
7.82092e-15
7.82091e-15
1.56394e-14
7.82331e-15
1.39279e-13
4.18312e-13
2.78817e-13
4.18441e-13
6.97386e-13
2.79075e-13
4.18612e-13
1.39667e-13
7.80139e-15
2.16994e-16
7.80378e-15
2.34356e-14
1.56221e-14
8.69911e-17
1.56269e-14
3.90746e-14
2.34477e-14
1.39361e-13
1.39361e-13
7.82075e-15
7.82074e-15
7.34399e-18
2.78851e-13
2.78851e-13
1.39447e-13
7.81825e-15
7.81578e-15
7.82069e-15
3.90813e-14
1.56389e-14
1.47622e-17
1.23087e-17
4.18204e-13
1.39269e-13
1.39357e-13
1.39313e-13
1.39401e-13
2.78845e-13
4.18421e-13
4.1842e-13
8.83166e-17
1.39576e-13
8.84162e-17
1.56238e-14
1.56262e-14
7.81311e-15
7.80927e-15
1.35545e-26
2.49314e-18
2.62491e-29
1.39442e-13
1.39486e-13
1.35568e-26
1.56285e-14
2.71108e-26
2.78926e-13
0
1.39529e-13
4.18454e-13
1.39574e-13
1.39618e-13
7.80791e-15
2.34362e-14
1.56258e-14
1.39528e-13
4.1845e-13
2.79056e-13
1.39617e-13
1.39662e-13
2.79145e-13
7.80275e-15
2.34308e-14
1.79868e-16
1.39617e-13
1.39662e-13
7.80518e-15
1.56179e-14
1.39616e-13
1.35365e-16
1.39661e-13
4.18577e-13
2.25996e-16
1.56152e-14
2.26255e-16
1.81108e-16
7.80248e-15
1.56202e-14
1.56201e-14
1.3957e-13
2.79048e-13
2.79094e-13
1.3966e-13
1.39706e-13
2.2756e-16
7.79977e-15
7.8023e-15
7.80228e-15
1.56199e-14
1.56198e-14
9.13397e-17
9.13925e-17
9.14453e-17
1.39568e-13
2.79044e-13
7.80727e-15
2.34346e-14
1.39567e-13
4.18472e-13
1.56221e-14
2.34345e-14
2.34421e-14
1.56272e-14
2.78857e-13
2.78902e-13
1.35567e-26
7.81227e-15
0
0
1.39473e-13
1.39473e-13
7.81221e-15
7.8122e-15
1.39473e-13
7.81477e-15
2.34417e-14
7.81735e-15
5.19881e-18
5.20185e-18
1.39379e-13
5.20794e-18
7.8173e-15
5.21405e-18
5.21711e-18
1.56345e-14
1.56345e-14
1.04526e-17
2.78753e-13
2.78753e-13
7.81984e-15
3.12636e-14
7.82245e-15
1.39188e-13
7.82506e-15
1.39234e-13
2.78702e-13
7.82505e-15
7.82241e-15
1.39233e-13
1.3928e-13
1.39279e-13
7.90904e-18
1.39326e-13
7.82238e-15
5.28206e-18
2.78744e-13
1.39372e-13
1.39372e-13
7.81705e-15
7.81704e-15
5.30088e-18
5.30403e-18
2.78835e-13
4.183e-13
1.39465e-13
2.78976e-13
4.74722e-17
7.80632e-15
1.39511e-13
1.56232e-14
2.34375e-14
1.81448e-25
2.66944e-18
6.77546e-27
2.67263e-18
7.81422e-15
2.67583e-18
2.67743e-18
2.67903e-18
2.68064e-18
1.39414e-13
2.68385e-18
2.34424e-14
1.56309e-14
2.78778e-13
5.57698e-13
2.69192e-18
7.81139e-15
7.81677e-15
7.81406e-15
7.81945e-15
7.81674e-15
4.18233e-13
5.57739e-13
4.18376e-13
2.79014e-13
1.56198e-14
3.12451e-14
1.56252e-14
1.81412e-25
2.71474e-18
7.81393e-15
7.81664e-15
1.56305e-14
5.44264e-18
8.1689e-18
7.81932e-15
7.82204e-15
1.56359e-14
1.09183e-17
2.78667e-13
1.09316e-17
2.78764e-13
1.09449e-17
2.34441e-14
1.09583e-17
1.09649e-17
7.82472e-15
1.09783e-17
5.5757e-13
4.18165e-13
2.78858e-13
1.39404e-13
4.91331e-17
2.78906e-13
4.91933e-17
7.80813e-15
1.39501e-13
2.78953e-13
2.79002e-13
1.396e-13
1.97498e-16
1.9762e-16
1.97741e-16
4.1855e-13
2.79099e-13
7.79411e-15
2.97342e-16
2.34239e-14
1.56103e-14
1.56186e-14
2.34293e-14
7.81068e-15
7.81067e-15
0
1.39449e-13
1.01627e-26
1.39498e-13
2.78896e-13
2.78995e-13
1.39547e-13
1.56155e-14
7.80495e-15
7.80774e-15
1.00161e-16
7.81051e-15
1.5621e-14
0
1.56266e-14
2.34398e-14
7.8189e-15
1.39294e-13
7.8217e-15
5.64366e-18
1.12944e-17
2.34453e-14
1.39242e-13
2.78636e-13
2.78736e-13
8.49727e-18
1.56291e-14
8.50791e-18
1.39291e-13
8.51858e-18
1.56319e-14
1.3929e-13
2.78681e-13
5.69332e-18
1.3934e-13
5.70048e-18
7.81589e-15
5.70766e-18
5.71125e-18
7.81871e-15
5.71845e-18
2.78728e-13
2.78778e-13
2.86464e-18
1.56259e-14
2.86826e-18
2.78776e-13
4.18266e-13
2.78878e-13
1.02641e-16
1.02706e-16
7.8071e-15
7.80709e-15
7.80995e-15
2.34356e-14
1.56256e-14
7.81858e-15
7.81857e-15
7.82145e-15
7.82145e-15
1.15827e-17
1.39229e-13
1.15975e-17
8.70367e-18
1.39228e-13
1.56341e-14
1.3928e-13
2.7861e-13
7.81848e-15
1.39279e-13
8.74268e-18
5.83218e-18
1.39278e-13
7.81844e-15
7.81843e-15
1.39277e-13
1.39276e-13
1.39328e-13
1.39328e-13
2.9311e-18
2.93299e-18
1.56279e-14
7.81543e-15
1.39274e-13
5.8811e-18
5.8849e-18
5.88869e-18
2.78756e-13
5.57617e-13
2.78861e-13
1.05369e-16
1.05437e-16
1.56188e-14
1.56188e-14
2.78858e-13
6.77286e-27
7.8064e-15
7.81232e-15
7.80934e-15
1.39375e-13
7.81228e-15
7.81227e-15
1.39374e-13
1.39374e-13
0
1.56244e-14
7.81221e-15
2.78746e-13
1.39373e-13
0
1.39426e-13
1.3939e-30
2.34334e-14
7.81212e-15
7.81811e-15
7.8151e-15
9.00712e-18
1.39317e-13
2.78687e-13
3.00829e-18
7.81505e-15
1.56271e-14
6.02845e-18
1.39261e-13
6.0364e-18
1.39315e-13
1.39314e-13
7.81498e-15
3.02617e-18
2.78735e-13
3.03017e-18
7.81191e-15
1.39367e-13
3.03618e-18
6.77462e-27
2.78786e-13
4.1826e-13
4.18314e-13
1.39583e-13
2.17614e-16
2.17759e-16
7.79957e-15
1.56113e-14
1.56143e-14
7.80563e-15
7.80867e-15
7.80866e-15
2.78835e-13
2.78835e-13
1.09534e-16
7.80553e-15
1.56172e-14
1.56202e-14
7.81164e-15
7.8147e-15
1.39361e-13
2.78721e-13
0
1.39415e-13
7.81156e-15
1.562e-14
1.39359e-13
1.39359e-13
0
7.8115e-15
2.34345e-14
1.56261e-14
7.82078e-15
9.32409e-18
2.78604e-13
2.78659e-13
2.78714e-13
1.56259e-14
1.56228e-14
5.5748e-13
5.57535e-13
2.78878e-13
1.11617e-16
1.6754e-16
1.11769e-16
7.8019e-15
1.39522e-13
1.39522e-13
1.39578e-13
1.39578e-13
4.18452e-13
4.18452e-13
1.56004e-14
3.12227e-14
7.79542e-15
1.68914e-16
7.79853e-15
1.69145e-16
7.80165e-15
7.80163e-15
1.56159e-14
7.80476e-15
1.81313e-25
5.6614e-17
2.78812e-13
7.80787e-15
7.80468e-15
2.78811e-13
4.18273e-13
1.13696e-16
1.56092e-14
7.80459e-15
1.56155e-14
1.56187e-14
2.34328e-14
1.5625e-14
9.60202e-18
9.60866e-18
9.61532e-18
1.39231e-13
2.78633e-13
1.39288e-13
3.214e-18
7.81403e-15
1.56248e-14
6.44142e-18
2.7863e-13
1.39286e-13
3.22744e-18
7.81397e-15
3.23194e-18
2.78685e-13
4.18142e-13
1.394e-13
2.34255e-14
1.56181e-14
3.24551e-18
1.39341e-13
1.3934e-13
0
1.39398e-13
1.39398e-13
2.78853e-13
2.78853e-13
1.39572e-13
1.39572e-13
2.33326e-16
2.3349e-16
1.56079e-14
1.56079e-14
1.56144e-14
1.56143e-14
7.81044e-15
1.56209e-14
1.39336e-13
2.78671e-13
0
7.81038e-15
2.41761e-25
4.18122e-13
2.78786e-13
7.80372e-15
1.5614e-14
2.34276e-14
1.39392e-13
4.18058e-13
2.78843e-13
5.57626e-13
2.7896e-13
7.79361e-15
7.79358e-15
2.375e-16
1.5607e-14
7.79684e-15
1.19005e-16
7.80013e-15
2.78898e-13
1.19261e-16
2.34169e-14
2.34236e-14
2.34269e-14
7.81341e-15
1.56268e-14
2.34368e-14
2.34435e-14
1.56368e-14
7.83353e-15
7.83354e-15
2.78292e-13
2.78292e-13
2.78411e-13
1.39024e-13
1.56333e-14
1.56367e-14
7.83018e-15
1.38962e-13
1.38962e-13
2.03384e-17
2.03532e-17
2.0368e-17
2.78404e-13
1.39019e-13
1.36084e-17
7.82679e-15
1.36282e-17
2.04572e-17
1.5633e-14
9.84751e-17
2.04678e-17
2.79788e-13
2.0608e-17
1.36981e-17
1.39014e-13
7.82335e-15
2.78454e-13
1.39074e-13
7.8199e-15
7.82333e-15
1.37687e-17
4.1783e-13
1.39133e-13
7.81642e-15
7.81986e-15
1.56293e-14
1.39131e-13
2.78447e-13
2.78569e-13
2.78569e-13
3.46769e-18
2.78691e-13
1.39314e-13
7.80591e-15
7.80937e-15
7.80936e-15
7.81282e-15
2.34315e-14
1.3925e-13
5.5725e-13
3.49355e-18
1.56185e-14
3.49877e-18
1.39249e-13
3.504e-18
2.78684e-13
2.78683e-13
1.39435e-13
6.27244e-17
7.80213e-15
6.28185e-17
2.78806e-13
4.18177e-13
1.3956e-13
7.79497e-15
1.5604e-14
1.89308e-16
1.39497e-13
1.56074e-14
1.89736e-16
4.18172e-13
1.39559e-13
2.53556e-16
1.56037e-14
1.56037e-14
1.27066e-16
1.27163e-16
1.27259e-16
7.80176e-15
1.56106e-14
7.80529e-15
1.39367e-13
2.78733e-13
4.18163e-13
1.27939e-16
2.56073e-16
1.39494e-13
7.7944e-15
7.79797e-15
1.56067e-14
2.78858e-13
2.78793e-13
2.57447e-16
7.79786e-15
7.79422e-15
7.80143e-15
3.12237e-14
7.80501e-15
2.7866e-13
1.20854e-25
7.80496e-15
1.39362e-13
1.39361e-13
7.8049e-15
1.56134e-14
1.5617e-14
1.56206e-14
2.7859e-13
1.39164e-13
1.35429e-26
2.78588e-13
0
1.39359e-13
7.8084e-15
1.56131e-14
3.67091e-18
7.81203e-15
7.81202e-15
7.81568e-15
1.5624e-14
1.56276e-14
7.82303e-15
5.57096e-13
5.57095e-13
7.81193e-15
3.69971e-18
7.40523e-18
7.8119e-15
1.56238e-14
1.56238e-14
1.48571e-17
7.823e-15
1.48805e-17
1.39021e-13
1.4904e-17
1.39087e-13
5.57144e-13
1.39152e-13
6.76904e-27
2.7857e-13
1.39352e-13
1.39351e-13
1.39418e-13
6.69745e-17
1.56084e-14
2.342e-14
1.35405e-26
1.39215e-13
1.3935e-13
1.39282e-13
7.80408e-15
1.39349e-13
1.39348e-13
2.78764e-13
2.78763e-13
1.39551e-13
2.03019e-16
2.70909e-16
1.3955e-13
2.71344e-16
7.79249e-15
7.79246e-15
7.79625e-15
7.79622e-15
1.39481e-13
2.78826e-13
2.78894e-13
2.78962e-13
7.78844e-15
1.55922e-14
1.55998e-14
2.34073e-14
1.3948e-13
2.78754e-13
2.78891e-13
2.78891e-13
7.7882e-15
3.44154e-16
1.39617e-13
3.44715e-16
1.55955e-14
1.55954e-14
2.07336e-16
4.18228e-13
5.57567e-13
2.79095e-13
1.39825e-13
5.55165e-16
7.77615e-15
7.77611e-15
4.86967e-16
4.87368e-16
1.39825e-13
1.39826e-13
5.58369e-16
7.77587e-15
1.5583e-14
4.89785e-16
2.79092e-13
1.39826e-13
2.79232e-13
1.39897e-13
7.7677e-15
6.3286e-16
6.33386e-16
1.55785e-14
3.11925e-14
2.33933e-14
2.34012e-14
1.55981e-14
1.39474e-13
7.799e-15
2.34088e-14
2.34167e-14
7.80689e-15
1.39189e-13
7.81084e-15
1.56177e-14
7.97925e-18
1.19789e-17
2.78517e-13
2.78445e-13
0
2.78587e-13
0
7.16249e-17
1.39328e-13
7.80266e-15
7.80264e-15
2.78655e-13
1.39327e-13
7.79855e-15
7.20506e-17
1.39398e-13
2.78724e-13
1.44469e-16
7.79439e-15
7.79842e-15
1.56049e-14
1.56089e-14
1.39324e-13
1.39251e-13
1.56088e-14
1.20871e-25
1.3925e-13
2.78646e-13
1.39323e-13
1.56046e-14
1.39395e-13
6.0403e-25
3.12171e-14
1.20796e-25
1.39174e-13
1.56125e-14
1.56166e-14
1.56207e-14
7.81859e-15
1.39025e-13
1.39025e-13
1.56247e-14
7.81856e-15
2.06943e-17
1.65698e-17
2.78266e-13
1.39021e-13
1.56246e-14
2.34307e-14
1.38945e-13
4.17503e-13
2.78335e-13
1.39092e-13
2.78482e-13
4.17796e-13
0
1.56077e-14
2.34177e-14
3.12278e-14
1.56244e-14
1.38939e-13
2.78251e-13
1.39012e-13
1.2636e-17
7.81845e-15
7.81844e-15
1.68927e-17
1.69077e-17
2.7832e-13
1.69377e-17
7.81418e-15
1.39007e-13
1.27372e-17
1.27485e-17
1.39082e-13
2.7839e-13
7.81412e-15
2.3421e-14
7.81837e-15
1.56282e-14
1.71046e-17
2.78156e-13
1.39001e-13
2.78307e-13
1.39077e-13
8.59078e-18
1.39152e-13
1.39152e-13
4.30701e-18
4.3109e-18
1.56151e-14
1.5615e-14
1.29678e-17
1.39072e-13
2.78375e-13
7.81395e-15
2.34201e-14
7.81828e-15
1.73848e-17
1.38991e-13
1.38991e-13
1.39068e-13
2.78368e-13
8.73209e-18
7.8095e-15
8.74807e-18
8.75608e-18
8.76411e-18
2.78442e-13
1.39142e-13
1.56101e-14
1.3922e-13
2.78439e-13
0
1.39297e-13
1.39297e-13
7.88581e-17
7.80049e-15
7.80047e-15
1.56098e-14
1.56097e-14
7.81372e-15
1.56185e-14
1.5623e-14
1.78056e-17
2.7819e-13
1.38975e-13
7.81813e-15
7.81813e-15
1.78888e-17
4.17558e-13
2.78264e-13
4.48476e-18
8.97794e-18
1.56137e-14
2.34228e-14
3.12318e-14
2.34362e-14
1.56407e-14
3.6115e-17
4.06677e-17
7.84068e-15
4.07446e-17
1.38561e-13
2.77848e-13
1.3864e-13
1.3872e-13
1.38719e-13
1.38799e-13
1.38798e-13
1.38879e-13
7.82715e-15
7.82258e-15
2.78081e-13
4.17446e-13
2.78242e-13
9.17579e-18
1.3912e-13
1.3912e-13
1.5613e-14
7.80877e-15
1.38299e-17
1.56175e-14
1.38566e-17
2.78233e-13
4.17596e-13
4.17678e-13
1.39281e-13
1.39363e-13
2.78643e-13
2.78726e-13
2.49224e-16
2.33932e-14
2.33978e-14
7.79924e-15
2.78556e-13
2.78556e-13
7.79449e-15
1.67286e-16
1.39361e-13
1.67614e-16
1.67778e-16
1.67943e-16
1.68108e-16
1.39444e-13
2.78718e-13
1.39528e-13
7.78476e-15
3.37875e-16
2.78801e-13
3.38544e-16
4.23598e-16
3.39215e-16
7.77978e-15
1.39612e-13
3.40226e-16
4.25705e-16
1.39612e-13
7.77957e-15
7.77953e-15
3.41925e-16
3.42266e-16
7.7842e-15
7.78416e-15
1.39526e-13
4.18063e-13
2.7888e-13
5.16497e-16
5.17017e-16
2.33808e-14
1.55775e-14
2.59291e-16
3.46071e-16
2.59816e-16
7.78374e-15
7.78857e-15
7.78854e-15
7.79337e-15
1.74091e-16
2.78615e-13
1.39438e-13
1.39525e-13
2.62202e-16
7.7834e-15
1.39525e-13
2.63007e-16
1.39612e-13
1.39525e-13
1.55812e-14
1.55861e-14
7.78806e-15
7.79297e-15
7.79294e-15
1.39347e-13
4.17865e-13
1.77151e-16
2.33884e-14
7.79279e-15
7.79774e-15
2.34031e-14
0
9.98793e-18
7.80264e-15
7.81263e-15
3.12154e-14
1.56202e-14
2.78061e-13
2.7806e-13
2.78238e-13
4.17491e-13
1.39163e-13
0
0
1.39252e-13
2.78504e-13
1.39342e-13
7.79223e-15
1.39432e-13
9.07333e-17
1.55894e-14
1.55995e-14
1.55994e-14
1.39158e-13
2.78406e-13
7.80222e-15
1.55993e-14
1.39156e-13
2.78403e-13
2.78494e-13
1.39338e-13
1.83802e-16
1.55938e-14
1.84197e-16
2.7849e-13
1.39429e-13
1.84793e-16
2.77489e-16
1.39429e-13
1.55883e-14
2.78391e-16
6.96306e-13
1.39521e-13
7.77056e-15
3.72803e-16
7.77568e-15
3.73616e-16
3.74023e-16
7.78078e-15
2.33842e-14
1.55877e-14
7.79644e-15
7.79641e-15
1.39238e-13
2.78476e-13
1.39332e-13
7.79101e-15
1.89075e-16
1.39331e-13
1.39426e-13
1.89703e-16
7.78551e-15
1.55923e-14
1.5629e-14
0
0
1.39234e-13
1.39233e-13
9.56991e-17
9.58062e-17
1.55972e-14
7.79591e-15
4.17598e-13
5.56924e-13
4.17885e-13
7.77959e-15
2.33765e-14
1.3952e-13
2.78652e-13
2.78845e-13
1.39616e-13
7.76844e-15
4.86098e-16
1.39714e-13
4.87204e-16
5.85311e-16
4.88316e-16
7.76809e-15
4.89432e-16
1.39715e-13
2.7894e-13
5.89339e-16
6.88351e-16
5.90694e-16
7.76215e-15
1.39815e-13
5.92738e-16
1.55627e-14
1.55682e-14
4.95664e-16
3.96991e-16
7.77282e-15
3.97913e-16
3.98376e-16
3.9884e-16
7.7782e-15
1.55787e-14
3.00179e-16
5.57072e-13
1.39518e-13
3.11681e-14
1.55784e-14
7.78915e-15
2.01533e-16
2.78532e-13
7.78904e-15
3.89847e-14
7.79465e-15
2.78225e-13
0
2.78427e-13
2.78426e-13
2.03691e-16
2.78628e-13
2.78628e-13
4.08842e-16
2.78831e-13
4.18041e-13
7.76559e-15
2.33599e-14
7.77123e-15
7.77694e-15
7.77689e-15
7.78262e-15
7.78258e-15
1.39414e-13
7.7883e-15
1.55823e-14
7.79404e-15
2.33937e-14
4.05592e-29
1.38997e-13
1.39205e-13
1.391e-13
7.79386e-15
7.7997e-15
1.55994e-14
7.80554e-15
1.5611e-14
1.5611e-14
1.56228e-14
1.56228e-14
7.83505e-15
7.83507e-15
7.84103e-15
7.84106e-15
4.75786e-17
2.77547e-13
2.77545e-13
2.77756e-13
2.77755e-13
2.3938e-17
1.56226e-14
2.34219e-14
3.60421e-17
4.2102e-17
3.61328e-17
4.1683e-13
3.6224e-17
7.82334e-15
3.63156e-17
3.03013e-17
3.64077e-17
3.03783e-17
4.16924e-13
4.1703e-13
4.17246e-13
2.78163e-13
0
0
7.7989e-15
2.02832e-26
2.78267e-13
7.79883e-15
3.11891e-14
3.90001e-14
7.81729e-15
1.38524e-13
1.56222e-14
1.56284e-14
3.72587e-17
1.38408e-13
1.56346e-14
2.34332e-14
4.99379e-17
2.77362e-13
5.00687e-17
1.38399e-13
4.16649e-13
7.83615e-15
1.56283e-14
4.4099e-17
7.84254e-15
1.56409e-14
7.84893e-15
5.69996e-17
2.77338e-13
4.16513e-13
1.38383e-13
7.83642e-15
7.83644e-15
2.77554e-13
2.77553e-13
1.38604e-13
3.20492e-17
7.82374e-15
3.21355e-17
1.56282e-14
1.56282e-14
1.38366e-13
2.77537e-13
1.38479e-13
3.23975e-17
3.24415e-17
1.56282e-14
1.56282e-14
1.56412e-14
7.84344e-15
2.77288e-13
5.23339e-17
4.58551e-17
2.77398e-13
1.38346e-13
3.94672e-17
1.38461e-13
2.77625e-13
1.38576e-13
2.64576e-17
2.64944e-17
7.82401e-15
1.38689e-13
4.16895e-13
2.77968e-13
1.334e-17
1.39042e-13
4.17244e-13
1.39161e-13
1.3928e-13
1.19881e-16
2.33782e-14
1.55877e-14
1.39038e-13
2.78195e-13
3.01593e-25
1.20906e-16
1.39156e-13
7.79025e-15
7.79021e-15
2.7831e-13
1.35243e-26
7.78327e-15
1.39154e-13
1.22301e-16
7.79e-15
7.78996e-15
1.39152e-13
0
7.78986e-15
7.79673e-15
1.3915e-13
4.17325e-13
2.78422e-13
2.78545e-13
3.72821e-16
4.97825e-16
7.7756e-15
2.33616e-14
1.5579e-14
2.33824e-14
3.11858e-14
2.34033e-14
7.82457e-15
1.38514e-13
1.38513e-13
2.83099e-17
2.83523e-17
2.83947e-17
1.38634e-13
1.38633e-13
1.38759e-13
4.17038e-13
1.43046e-17
2.33883e-14
7.81042e-15
1.38753e-13
1.38752e-13
1.3888e-13
7.8104e-15
7.80316e-15
5.56155e-13
2.78012e-13
1.29608e-16
1.39134e-13
1.30007e-16
1.55842e-14
3.89714e-14
3.11902e-14
1.56207e-14
1.38476e-13
2.77474e-13
2.94555e-17
7.82508e-15
7.8251e-15
1.5628e-14
2.34235e-14
2.77328e-13
4.16321e-13
2.77589e-13
2.77587e-13
1.38726e-13
2.7785e-13
7.81028e-15
7.80277e-15
4.16969e-13
1.50567e-17
7.79518e-15
1.5105e-17
7.56461e-18
1.38851e-13
7.58898e-18
7.60123e-18
7.61352e-18
1.38983e-13
1.38982e-13
2.78236e-13
4.17353e-13
1.39391e-13
2.78645e-13
4.17761e-13
6.88312e-16
1.55432e-14
7.75603e-15
1.39667e-13
1.39668e-13
7.75575e-15
2.7892e-13
1.39669e-13
1.55344e-14
7.75538e-15
1.55498e-14
1.39671e-13
2.7864e-13
7.03323e-16
7.7549e-15
7.7548e-15
7.76263e-15
1.55568e-14
1.55647e-14
2.84195e-16
1.39248e-13
7.77819e-15
1.3939e-13
5.56557e-13
7.76999e-15
2.33419e-14
2.87616e-16
1.3939e-13
2.7849e-13
1.39534e-13
7.76144e-15
1.55552e-14
7.76941e-15
2.91125e-16
1.39389e-13
1.39389e-13
1.39536e-13
1.39536e-13
7.76074e-15
7.76065e-15
7.76882e-15
7.76875e-15
2.95773e-16
1.39389e-13
1.39389e-13
3.11488e-14
2.33552e-14
8.36045e-18
6.75494e-27
1.3894e-13
1.39089e-13
2.78177e-13
7.78478e-15
2.33627e-14
1.55863e-14
7.80161e-15
1.69954e-17
1.70265e-17
1.70577e-17
1.38779e-13
2.77861e-13
1.3893e-13
7.7929e-15
1.55857e-14
8.62376e-18
2.77852e-13
1.38925e-13
0
7.79271e-15
7.79268e-15
8.72094e-18
1.38921e-13
2.77996e-13
4.17227e-13
2.78307e-13
4.71367e-16
7.76599e-15
7.76591e-15
7.77468e-15
7.77461e-15
1.55758e-14
1.55757e-14
1.55934e-14
7.80116e-15
2.77659e-13
1.38748e-13
7.80111e-15
1.55932e-14
2.33942e-14
7.81915e-15
1.38257e-13
3.63208e-17
1.38415e-13
1.38413e-13
1.38574e-13
1.38573e-13
4.16859e-13
2.77795e-13
2.33659e-14
1.2058e-25
2.7779e-13
1.39059e-13
1.39059e-13
7.78225e-15
1.55737e-14
7.79148e-15
7.8008e-15
1.38888e-13
2.77774e-13
1.39054e-13
7.79131e-15
7.78182e-15
7.80071e-15
2.41079e-25
1.38712e-13
7.79113e-15
7.80065e-15
7.80063e-15
2.77755e-13
1.92228e-17
1.55819e-14
1.93038e-17
1.38701e-13
2.77745e-13
2.77916e-13
2.78088e-13
1.39218e-13
1.39392e-13
1.39392e-13
1.39567e-13
5.26784e-16
7.75113e-15
5.29063e-16
1.39569e-13
2.33416e-14
3.11219e-14
2.33712e-14
7.79035e-15
4.16572e-13
2.77891e-13
1.80768e-25
1.55703e-14
1.55803e-14
1.55904e-14
1.56005e-14
3.05039e-17
1.38303e-13
2.77513e-13
2.7751e-13
1.38845e-13
2.77872e-13
4.17082e-13
4.17264e-13
7.7587e-15
1.55379e-14
2.7842e-13
4.17444e-13
2.78792e-13
4.18002e-13
4.1819e-13
7.70532e-15
1.5484e-14
1.32064e-15
1.55046e-14
2.32937e-14
1.55254e-14
7.61779e-16
5.72688e-16
1.55355e-14
7.75691e-15
1.39399e-13
1.39399e-13
1.39593e-13
2.78606e-13
1.39788e-13
1.39984e-13
2.78996e-13
1.40183e-13
1.37211e-15
1.40384e-13
1.37885e-15
1.54888e-14
1.40392e-13
1.40196e-13
1.40596e-13
2.79404e-13
1.79936e-15
7.68736e-15
1.54755e-14
1.61152e-15
1.41364e-15
7.69752e-15
2.79418e-13
2.79421e-13
1.83613e-15
7.68497e-15
1.54727e-14
1.4064e-13
1.40437e-13
1.54717e-14
7.69503e-15
1.45418e-15
1.45799e-15
1.54937e-14
7.70562e-15
1.04967e-15
1.55046e-14
1.05526e-15
4.17807e-13
1.40047e-13