/*--------------------------------*- C++ -*----------------------------------*\
| =========                 |                                                 |
| \\      /  F ield         | OpenFOAM: The Open Source CFD Toolbox           |
|  \\    /   O peration     | Version:  2.3.1                                 |
|   \\  /    A nd           | Web:      www.OpenFOAM.org                      |
|    \\/     M anipulation  |                                                 |
\*---------------------------------------------------------------------------*/
FoamFile
{
    version     2.0;
    format      ascii;
    class       volScalarField;
    location    "1e-06";
    object      psiByDp;
}
// * * * * * * * * * * * * * * * * * * * * * * * * * * * * * * * * * * * * * //

dimensions      [1 -3 0 0 0 0 0];

internalField   nonuniform List<scalar> 
10000
(
951.375
951.273
951.17
951.067
950.964
950.862
950.759
950.656
950.553
950.45
950.347
950.244
950.141
950.038
949.936
949.833
949.73
949.627
949.524
949.42
949.317
949.214
949.111
949.008
948.905
948.802
948.699
948.596
948.492
948.389
948.286
948.183
948.079
947.976
947.873
947.77
947.666
947.563
947.46
947.356
947.253
947.149
947.046
946.942
946.839
946.736
946.632
946.529
946.425
946.321
946.218
946.114
946.011
945.907
945.803
945.7
945.596
945.492
945.389
945.285
945.181
945.077
944.974
944.87
944.766
944.662
944.558
944.455
944.351
944.247
944.143
944.039
943.935
943.831
943.727
943.623
943.519
943.415
943.311
943.207
943.103
942.999
942.894
942.79
942.686
942.582
942.478
942.373
942.269
942.165
942.061
941.956
941.852
941.748
941.643
941.539
941.435
941.33
941.226
941.121
941.017
940.912
940.808
940.703
940.599
940.494
940.39
940.285
940.18
940.076
939.971
939.866
939.762
939.657
939.552
939.447
939.343
939.238
939.133
939.028
938.923
938.818
938.714
938.609
938.504
938.399
938.294
938.189
938.084
937.979
937.874
937.769
937.664
937.559
937.453
937.348
937.243
937.138
937.033
936.927
936.822
936.717
936.612
936.506
936.401
936.296
936.19
936.085
935.98
935.874
935.769
935.663
935.558
935.452
935.347
935.241
935.136
935.03
934.924
934.819
934.713
934.607
934.502
934.396
934.29
934.185
934.079
933.973
933.867
933.761
933.655
933.55
933.444
933.338
933.232
933.126
933.02
932.914
932.808
932.702
932.596
932.49
932.384
932.277
932.171
932.065
931.959
931.853
931.746
931.64
931.534
931.428
931.321
931.215
931.109
931.002
930.896
930.789
930.683
930.576
930.47
930.363
930.257
930.15
930.044
929.937
929.831
929.724
929.617
929.511
929.404
929.297
929.19
929.084
928.977
928.87
928.763
928.656
928.549
928.443
928.336
928.229
928.122
928.015
927.908
927.801
927.694
927.586
927.479
927.372
927.265
927.158
927.051
926.944
926.836
926.729
926.622
926.514
926.407
926.3
926.192
926.085
925.978
925.87
925.763
925.655
925.548
925.44
925.333
925.225
925.117
925.01
924.902
924.794
924.687
924.579
924.471
924.363
924.256
924.148
924.04
923.932
923.824
923.716
923.608
923.5
923.392
923.284
923.176
923.068
922.96
922.852
922.744
922.636
922.528
922.42
922.311
922.203
922.095
921.987
921.878
921.77
921.662
921.553
921.445
921.336
921.228
921.12
921.011
920.902
920.794
920.685
920.577
920.468
920.359
920.251
920.142
920.033
919.925
919.816
919.707
919.598
919.489
919.381
919.272
919.163
919.054
918.945
918.836
918.727
918.618
918.509
918.4
918.291
918.181
918.072
917.963
917.854
917.745
917.635
917.526
917.417
917.308
917.198
917.089
916.979
916.87
916.76
916.651
916.541
916.432
916.322
916.213
916.103
915.994
915.884
915.774
915.664
915.555
915.445
915.335
915.225
915.116
915.006
914.896
914.786
914.676
914.566
914.456
914.346
914.236
914.126
914.016
913.906
913.795
913.685
913.575
913.465
913.355
913.244
913.134
913.024
912.913
912.803
912.693
912.582
912.472
912.361
912.251
912.14
912.03
911.919
911.808
911.698
911.587
911.476
911.366
911.255
911.144
911.033
910.922
910.812
910.701
910.59
910.479
910.368
910.257
910.146
910.035
909.924
909.813
909.701
909.59
909.479
909.368
909.257
909.145
909.034
908.923
908.811
908.7
908.589
908.477
908.366
908.254
908.143
908.031
907.92
907.808
907.697
907.585
907.473
907.362
907.25
907.138
907.026
906.914
906.803
906.691
906.579
906.467
906.355
906.243
906.131
906.019
905.907
905.795
905.683
905.571
905.458
905.346
905.234
905.122
905.009
904.897
904.785
904.672
904.56
904.448
904.335
904.223
904.11
903.998
903.885
903.772
903.66
903.547
903.434
903.322
903.209
903.096
902.983
902.871
902.758
902.645
902.532
902.419
902.306
902.193
902.08
901.967
901.854
901.741
901.628
901.514
901.401
901.288
901.175
901.061
900.948
900.835
900.721
900.608
900.494
900.381
900.268
900.154
900.04
899.927
899.813
899.7
899.586
899.472
899.358
899.245
899.131
899.017
898.903
898.789
898.675
898.561
898.448
898.334
898.219
898.105
897.991
897.877
897.763
897.649
897.245
897.42
897.306
897.192
897.078
896.963
896.849
896.734
896.62
896.505
896.391
896.276
896.162
896.047
895.932
895.818
895.703
895.588
895.474
895.359
895.244
895.129
895.014
894.899
894.784
894.669
894.554
894.439
894.324
894.209
894.094
893.979
893.864
893.749
893.633
893.518
893.403
893.287
893.172
893.057
892.941
892.826
892.71
892.595
892.479
892.363
892.248
892.132
892.016
891.901
891.785
891.669
891.553
891.437
891.322
891.206
891.09
890.974
890.858
890.742
890.626
890.509
890.393
890.277
890.161
890.045
889.928
889.812
889.696
889.579
889.463
889.347
889.23
889.114
888.997
888.881
888.764
888.647
888.531
888.414
888.297
888.181
888.064
887.947
887.83
887.713
887.596
887.479
887.362
887.245
887.128
887.011
886.894
886.777
886.66
886.542
886.425
886.308
886.191
886.073
885.956
885.838
885.721
885.604
885.486
885.368
885.251
885.133
885.016
884.898
884.78
884.662
884.545
884.427
884.309
884.191
884.073
883.955
883.837
883.719
883.601
883.483
883.365
883.247
883.129
883.01
882.892
882.774
882.656
882.537
882.419
882.3
882.182
882.063
881.945
881.826
881.708
881.589
881.47
881.352
881.233
881.114
880.995
880.877
880.758
880.639
880.52
880.401
880.282
880.163
880.044
879.925
879.805
879.686
879.567
879.448
879.328
879.209
879.09
878.97
878.851
878.731
878.612
878.492
878.373
878.253
878.133
878.014
877.894
877.774
877.655
877.535
877.415
877.295
877.175
877.055
876.935
876.815
876.695
876.575
876.455
876.334
876.214
876.094
875.974
875.853
875.733
875.613
875.492
875.372
875.251
875.131
875.01
874.889
874.769
874.648
874.527
874.407
874.286
874.165
874.044
873.923
873.802
873.681
873.56
873.439
873.318
873.197
873.076
872.955
872.833
872.712
872.591
872.469
872.348
872.227
872.105
871.984
871.862
871.741
871.619
871.497
871.376
871.254
871.132
871.01
870.889
870.767
870.645
870.523
870.401
870.279
870.157
870.035
869.912
869.79
869.668
869.546
869.424
869.301
869.179
869.056
868.934
868.812
868.689
868.566
868.444
868.321
868.199
868.076
867.953
867.83
867.708
867.585
867.462
867.339
867.216
867.093
866.97
866.847
866.724
866.6
866.477
866.354
866.231
866.107
865.984
865.861
865.737
865.614
865.49
865.367
865.243
865.119
864.996
864.872
864.748
864.624
864.501
864.377
864.253
864.129
864.005
863.881
863.757
863.633
863.509
863.384
863.26
863.136
863.012
862.887
862.763
862.638
862.514
862.389
862.265
862.14
862.016
861.891
861.766
861.642
861.517
861.392
861.267
861.142
861.017
860.892
860.767
860.642
860.517
860.392
860.267
860.141
860.016
859.891
859.766
859.64
859.515
859.389
859.264
859.138
859.013
858.887
858.761
858.636
858.51
858.384
858.258
858.132
858.006
857.88
857.754
857.628
857.502
857.376
857.25
857.124
856.997
856.871
856.745
856.618
856.492
856.365
856.239
856.112
855.986
855.859
855.733
855.606
855.479
855.352
855.225
855.099
854.972
854.845
854.718
854.591
854.463
854.336
854.209
854.082
853.955
853.827
853.7
853.573
853.445
853.318
853.19
853.063
852.935
852.807
852.68
852.552
852.424
852.296
852.168
852.041
851.913
851.785
851.657
851.528
851.4
851.272
851.144
851.016
850.887
850.759
850.631
850.502
850.374
850.245
850.117
849.988
849.859
849.731
849.602
849.473
849.344
849.216
849.087
848.958
848.829
848.7
848.571
848.441
848.312
848.183
848.054
847.924
847.795
847.666
847.536
847.407
847.277
847.148
847.018
846.888
846.759
846.629
846.499
846.369
846.239
846.109
845.979
845.849
845.719
845.589
845.459
845.329
845.199
845.068
844.938
844.808
844.677
844.547
844.416
844.286
844.155
844.024
843.894
843.763
843.632
843.501
843.37
843.239
843.108
842.977
842.846
842.715
842.584
842.453
842.321
842.19
842.059
841.927
841.796
841.664
841.533
841.401
841.27
841.138
841.006
840.875
840.743
840.611
840.479
840.347
840.215
840.083
839.951
839.819
839.687
839.554
839.422
839.29
839.157
839.025
838.892
838.76
838.627
838.495
838.362
838.229
838.097
837.964
837.831
837.698
837.565
837.432
837.299
837.166
837.033
836.9
836.766
836.633
836.5
836.366
836.233
836.099
835.294
835.832
835.699
835.565
835.431
835.297
835.164
835.03
834.896
834.762
834.628
834.494
834.36
834.225
834.091
833.957
833.823
833.688
833.554
833.419
833.285
833.15
833.016
832.881
832.746
832.612
832.477
832.342
832.207
832.072
831.937
831.802
831.667
831.532
831.397
831.261
831.126
830.991
830.855
830.72
830.584
830.449
830.313
830.178
830.042
829.906
829.77
829.634
829.499
829.363
829.227
829.091
828.954
828.818
828.682
828.546
828.409
828.273
828.137
828
827.864
827.727
827.591
827.454
827.317
827.18
827.044
826.907
826.77
826.633
826.496
826.359
826.221
826.084
825.947
825.81
825.672
825.535
825.398
825.26
825.123
824.985
824.847
824.71
824.572
824.434
824.296
824.158
824.02
823.882
823.744
823.606
823.468
823.33
823.191
823.053
822.915
822.776
822.638
822.499
822.36
822.222
822.083
821.944
821.805
821.667
821.528
821.389
821.25
821.111
820.971
820.832
820.693
820.554
820.414
820.275
820.135
819.996
819.856
819.717
819.577
819.437
819.297
819.158
819.018
818.878
818.738
818.598
818.458
818.317
818.177
818.037
817.897
817.756
817.616
817.475
817.335
817.194
817.053
816.913
816.772
816.631
816.49
816.349
816.208
816.067
815.926
815.785
815.644
815.502
815.361
815.22
815.078
814.937
814.795
814.653
814.512
814.37
814.228
814.086
813.944
813.802
813.66
813.518
813.376
813.234
813.092
812.95
812.807
812.665
812.522
812.38
812.237
812.095
811.952
811.809
811.666
811.523
811.381
811.238
811.094
810.951
810.808
810.665
810.522
810.378
810.235
810.092
809.948
809.804
809.661
809.517
809.373
809.23
809.086
808.942
808.798
808.654
808.51
808.366
808.221
808.077
807.933
807.788
807.644
807.5
807.355
807.21
807.066
806.921
806.776
806.631
806.486
806.341
806.196
806.051
805.906
805.761
805.616
805.47
805.325
805.179
805.034
804.888
804.743
804.597
804.451
804.305
804.16
804.014
803.868
803.722
803.575
803.429
803.283
803.137
802.99
802.844
802.697
802.551
802.404
802.258
802.111
801.964
801.817
801.67
801.523
801.376
801.229
801.082
800.935
800.787
800.64
800.493
800.345
800.198
800.05
799.902
799.755
799.607
799.459
799.311
799.163
799.015
798.867
798.719
798.571
798.422
798.274
798.126
797.977
797.829
797.68
797.531
797.383
797.234
797.085
796.936
796.787
796.638
796.489
796.34
796.191
796.041
795.892
795.742
795.593
795.443
795.294
795.144
794.994
794.844
794.695
794.545
794.395
794.245
794.094
793.944
793.794
793.644
793.493
793.343
793.192
793.042
792.891
792.74
792.589
792.439
792.288
792.137
791.986
791.834
791.683
791.532
791.381
791.229
791.078
790.926
790.775
790.623
790.471
790.32
790.168
790.016
789.864
789.712
789.56
789.407
789.255
789.103
788.95
788.798
788.645
788.493
788.34
788.187
788.035
787.882
787.729
787.576
787.423
787.27
787.116
786.963
786.81
786.656
786.503
786.349
786.196
786.042
785.888
785.735
785.581
785.427
785.273
785.119
784.964
784.81
784.656
784.501
784.347
784.192
784.038
783.883
783.729
783.574
783.419
783.264
783.109
782.954
782.799
782.643
782.488
782.333
782.177
782.022
781.866
781.711
781.555
781.399
781.243
781.087
780.931
780.775
780.619
780.463
780.307
780.15
779.994
779.837
779.681
779.524
779.368
779.211
779.054
778.897
778.74
778.583
778.426
778.269
778.111
777.954
777.796
777.639
777.481
777.324
777.166
777.008
776.85
776.692
776.534
776.376
776.218
776.06
775.901
775.743
775.585
775.426
775.267
775.109
774.95
774.791
774.632
774.473
774.314
774.155
773.996
773.837
773.677
773.518
773.358
773.199
773.039
772.879
772.719
772.56
772.4
772.24
772.079
771.919
771.759
771.599
771.438
771.278
771.117
770.957
770.796
770.635
770.474
770.313
770.152
769.991
769.83
769.669
769.507
769.346
769.184
769.023
768.861
768.699
768.538
768.376
768.214
768.052
767.89
767.727
767.565
767.403
767.24
767.078
766.915
766.752
766.59
766.427
766.264
766.101
765.938
765.775
765.612
765.448
765.285
765.121
764.958
764.794
764.631
764.467
764.303
764.139
763.975
763.811
763.647
763.482
763.318
763.154
762.989
762.825
762.66
762.495
762.33
762.165
760.75
761.835
761.67
761.505
761.34
761.174
761.009
760.843
760.677
760.512
760.346
760.18
760.014
759.848
759.682
759.515
759.349
759.183
759.016
758.85
758.683
758.516
758.35
758.183
758.016
757.849
757.681
757.514
757.347
757.179
757.012
756.844
756.677
756.509
756.341
756.173
756.005
755.837
755.669
755.501
755.332
755.164
754.995
754.827
754.658
754.489
754.32
754.152
753.982
753.813
753.644
753.475
753.305
753.136
752.966
752.797
752.627
752.457
752.287
752.117
751.947
751.777
751.607
751.437
751.266
751.096
750.925
750.754
750.583
750.413
750.242
750.071
749.899
749.728
749.557
749.385
749.214
749.042
748.871
748.699
748.527
748.355
748.183
748.011
747.839
747.666
747.494
747.322
747.149
746.976
746.804
746.631
746.458
746.285
746.112
745.938
745.765
745.592
745.418
745.244
745.071
744.897
744.723
744.549
744.375
744.201
744.027
743.852
743.678
743.503
743.329
743.154
742.979
742.804
742.629
742.454
742.279
742.104
741.929
741.753
741.578
741.402
741.226
741.05
740.874
740.698
740.522
740.346
740.17
739.993
739.817
739.64
739.463
739.287
739.11
738.933
738.756
738.578
738.401
738.224
738.046
737.869
737.691
737.513
737.335
737.157
736.979
736.801
736.623
736.445
736.266
736.088
735.909
735.73
735.551
735.372
735.193
735.014
734.835
734.656
734.476
734.296
734.117
733.937
733.757
733.577
733.397
733.217
733.037
732.856
732.676
732.495
732.315
732.134
731.953
731.772
731.591
731.41
731.229
731.047
730.866
730.684
730.502
730.321
730.139
729.957
729.775
729.592
729.41
729.228
729.045
728.863
728.68
728.497
728.314
728.131
727.948
727.765
727.581
727.398
727.214
727.031
726.847
726.663
726.479
726.295
726.111
725.926
725.742
725.557
725.373
725.188
725.003
724.818
724.633
724.448
724.263
724.077
723.892
723.706
723.521
723.335
723.149
722.963
722.777
722.59
722.404
722.218
722.031
721.844
721.657
721.471
721.283
721.096
720.909
720.722
720.534
720.347
720.159
719.971
719.783
719.595
719.407
719.219
719.03
718.842
718.653
718.465
718.276
718.087
717.898
717.709
717.519
717.33
717.141
716.951
716.761
716.571
716.381
716.191
716.001
715.811
715.62
715.43
715.239
715.048
714.858
714.667
714.475
714.284
714.093
713.901
713.71
713.518
713.326
713.134
712.942
712.75
712.558
712.365
712.173
711.98
711.788
711.595
711.402
711.208
711.015
710.822
710.628
710.435
710.241
710.047
709.853
709.659
709.465
709.271
709.076
708.882
708.687
708.492
708.297
708.102
707.907
707.712
707.516
707.321
707.125
706.929
706.733
706.537
706.341
706.145
705.948
705.752
705.555
705.358
705.161
704.964
704.767
704.57
704.372
704.175
703.977
703.779
703.581
703.383
703.185
702.987
702.788
702.59
702.391
702.192
701.993
701.794
701.595
701.396
701.196
700.997
700.797
700.597
700.397
700.197
699.997
699.796
699.596
699.395
699.194
698.993
698.792
698.591
698.39
698.188
697.987
697.785
697.583
697.381
697.179
696.977
696.775
696.572
696.369
696.167
695.964
695.761
695.558
695.354
695.151
694.947
694.743
694.54
694.336
694.131
693.927
693.723
693.518
693.313
693.109
692.904
692.699
692.493
692.288
692.082
691.877
691.671
691.465
691.259
691.053
690.846
690.64
690.433
690.226
690.019
689.812
689.605
689.398
689.19
688.983
688.775
688.567
688.359
688.151
687.942
687.734
687.525
687.316
687.107
686.898
686.689
686.48
686.27
686.061
685.851
685.641
685.431
685.22
685.01
684.799
684.589
684.378
684.167
683.956
683.744
683.533
683.321
683.11
682.898
682.686
682.474
682.261
682.049
681.836
681.623
681.41
681.197
680.984
680.771
680.557
680.343
680.129
679.915
679.701
679.487
679.272
679.058
678.843
678.628
678.413
678.197
677.982
677.766
677.551
677.335
677.119
676.903
676.686
676.47
676.253
676.036
675.819
675.602
675.385
675.167
674.949
674.732
674.514
674.296
674.077
673.859
673.64
673.421
673.202
672.983
672.764
672.545
672.325
672.105
671.885
671.665
671.445
671.224
671.004
670.783
670.562
670.341
670.12
669.898
669.677
669.455
669.233
669.011
668.789
668.566
668.344
668.121
667.898
667.675
667.451
667.228
667.004
666.78
668.087
666.332
666.108
665.883
665.659
665.434
665.209
664.984
664.758
664.533
664.307
664.081
663.855
663.629
663.402
663.176
662.949
662.722
662.495
662.267
662.04
661.812
661.584
661.356
661.128
660.9
660.671
660.442
660.213
659.984
659.755
659.525
659.296
659.066
658.836
658.605
658.375
658.144
657.913
657.682
657.451
657.22
656.988
656.757
656.525
656.292
656.06
655.828
655.595
655.362
655.129
654.896
654.662
654.429
654.195
653.961
653.726
653.492
653.257
653.023
652.788
652.552
652.317
652.081
651.846
651.61
651.373
651.137
650.9
650.664
650.427
650.189
649.952
649.714
649.477
649.239
649
648.762
648.523
648.285
648.046
647.806
647.567
647.327
647.088
646.848
646.607
646.367
646.126
645.885
645.644
645.403
645.162
644.92
644.678
644.436
644.194
643.951
643.708
643.465
643.222
642.979
642.735
642.491
642.247
642.003
641.759
641.514
641.269
641.024
640.779
640.533
640.287
640.041
639.795
639.549
639.302
639.055
638.808
638.561
638.313
638.066
637.818
637.569
637.321
637.072
636.823
636.574
636.325
636.075
635.826
635.576
635.325
635.075
634.824
634.573
634.322
634.071
633.819
633.567
633.315
633.063
632.81
632.557
632.304
632.051
631.798
631.544
631.29
631.036
630.781
630.527
630.272
630.016
629.761
629.505
629.249
628.993
628.737
628.48
628.223
627.966
627.709
627.451
627.193
626.935
626.677
626.418
626.159
625.9
625.641
625.381
625.121
624.861
624.601
624.34
624.079
623.818
623.557
623.295
623.033
622.771
622.509
622.246
621.983
621.72
621.456
621.193
620.929
620.664
620.4
620.135
619.87
619.605
619.339
619.073
618.807
618.541
618.274
618.007
617.74
617.473
617.205
616.937
616.668
616.4
616.131
615.862
615.593
615.323
615.053
614.783
614.512
614.241
613.97
613.699
613.427
613.155
612.883
612.611
612.338
612.065
611.791
611.518
611.244
610.97
610.695
610.42
610.145
609.87
609.594
609.318
609.042
608.765
608.488
608.211
607.934
607.656
607.378
607.099
606.821
606.542
606.263
605.983
605.703
605.423
605.142
604.862
604.58
604.299
604.017
603.735
603.453
603.17
602.887
602.604
602.32
602.036
601.752
601.467
601.182
600.897
600.612
600.326
600.039
599.753
599.466
599.179
598.891
598.604
598.315
598.027
597.738
597.449
597.159
596.869
596.579
596.289
595.998
595.707
595.415
595.123
594.831
594.539
594.246
593.952
593.659
593.365
593.071
592.776
592.481
592.186
591.89
591.594
591.297
591.001
590.703
590.406
590.108
589.81
589.511
589.212
588.913
588.613
588.313
588.013
587.712
587.411
587.11
586.808
586.505
586.203
585.9
585.596
585.293
584.988
584.684
584.379
584.074
583.768
583.462
583.155
582.849
582.541
582.234
581.926
581.617
581.308
580.999
580.689
580.379
580.069
579.758
579.447
579.135
578.823
578.511
578.198
577.885
577.571
577.257
576.942
576.627
576.312
575.996
575.68
575.363
575.046
574.729
574.411
574.093
573.774
573.455
573.135
572.815
572.495
572.174
571.852
571.53
571.208
570.885
570.562
570.239
569.915
569.59
569.265
568.94
568.614
568.287
567.961
567.633
567.306
566.977
566.649
566.32
565.99
565.66
565.329
564.998
564.667
564.335
564.003
563.67
563.336
563.002
562.668
562.333
561.998
561.662
561.325
560.988
560.651
560.313
559.975
559.636
559.296
558.956
558.616
558.275
557.934
557.592
557.249
556.906
556.562
556.218
555.874
555.529
555.183
554.837
554.49
554.143
553.795
553.446
553.097
552.748
552.398
552.047
551.696
551.344
550.992
550.639
550.286
549.932
549.577
549.222
548.866
548.51
548.153
547.796
547.438
547.079
546.72
546.36
546
545.639
545.277
544.915
544.552
544.189
543.824
543.46
543.095
542.729
542.362
541.995
541.627
541.259
540.89
540.52
540.149
539.778
539.407
539.035
538.662
538.288
537.914
537.539
537.163
536.787
536.41
536.032
535.654
535.275
534.895
534.515
534.134
533.752
533.37
532.986
532.602
532.218
531.833
531.447
531.06
530.672
530.284
529.895
529.506
529.115
528.724
528.332
527.939
527.546
527.152
526.757
526.361
525.965
525.568
525.17
524.771
524.371
523.971
523.57
523.168
522.765
522.361
521.957
521.552
521.146
520.739
521.962
519.922
519.513
519.103
518.692
518.28
517.867
517.453
517.039
516.623
516.207
515.79
515.372
514.953
514.533
514.112
513.691
513.268
512.845
512.42
511.995
511.569
511.141
510.713
510.284
509.854
509.423
508.991
508.558
508.124
507.689
507.253
506.816
506.378
505.939
505.499
505.058
504.616
504.173
503.729
503.284
502.837
502.39
501.942
501.492
501.042
500.59
500.137
499.684
499.229
498.773
500.564
497.857
497.398
496.937
496.475
496.012
495.548
495.083
494.616
494.149
493.68
493.209
492.738
492.266
491.792
491.317
490.84
490.363
489.884
489.404
488.922
488.439
487.955
487.47
486.983
486.495
486.006
485.515
485.023
484.529
484.034
483.538
483.04
482.541
482.041
481.538
481.035
480.53
480.024
479.516
479.006
478.495
477.983
477.469
476.953
476.436
475.917
475.397
474.875
476.37
473.826
473.3
472.771
472.241
471.709
471.176
470.64
470.104
469.565
469.024
468.482
467.938
467.392
466.845
466.295
465.744
465.191
464.636
464.079
463.52
462.959
462.397
461.832
461.265
460.697
460.126
459.553
458.978
458.402
457.823
457.242
456.658
456.073
455.485
454.896
454.304
453.709
453.113
452.514
451.913
451.309
450.704
450.095
449.485
448.872
448.256
447.638
447.018
446.395
445.769
447.871
444.511
443.877
443.241
442.602
441.961
441.317
440.67
440.02
439.367
438.712
438.053
437.392
436.727
436.06
435.389
434.716
434.039
433.359
432.676
431.99
431.301
430.608
429.912
429.212
428.509
427.803
427.093
426.379
425.662
424.941
424.217
423.489
422.757
422.021
421.282
420.538
419.791
419.039
418.284
417.524
416.76
415.992
415.219
414.443
413.661
412.876
412.086
411.291
413.117
409.687
408.878
408.064
407.246
406.422
405.593
404.76
403.921
403.076
402.227
401.372
400.511
399.645
398.773
397.896
397.013
396.123
395.228
394.327
393.42
392.506
391.586
390.66
389.727
388.788
387.842
386.889
385.93
384.963
383.989
383.008
382.02
381.025
380.022
379.011
377.993
376.967
375.934
374.892
373.842
372.785
371.719
370.644
369.562
368.47
367.371
366.262
365.145
364.019
366.049
361.74
360.588
359.426
358.255
357.075
355.886
354.688
353.48
352.264
351.038
349.803
348.56
347.307
346.045
344.775
343.496
342.209
340.913
339.609
338.297
336.978
335.651
334.317
332.976
331.629
330.276
328.917
327.553
326.184
324.811
323.434
322.055
320.673
319.289
317.903
316.517
315.132
313.747
312.363
310.982
309.603
308.228
306.858
305.492
304.133
302.779
301.433
300.095
298.765
301.083
296.132
294.831
293.54
292.261
290.992
289.736
288.492
287.261
286.043
284.838
283.646
282.468
281.303
280.153
279.016
277.894
276.786
275.691
274.611
273.545
272.493
271.455
270.43
269.42
268.423
267.439
266.469
265.512
264.568
263.636
262.718
261.812
260.918
260.037
259.167
258.309
257.462
256.627
255.803
254.99
254.188
253.397
252.615
251.844
251.083
250.332
249.59
248.858
248.135
249.034
246.715
246.019
245.331
244.652
243.981
243.318
242.662
242.015
241.375
240.743
240.118
239.5
238.889
238.285
237.688
237.098
236.514
235.936
235.365
234.8
234.241
233.688
233.141
232.599
232.063
231.533
231.008
230.488
229.973
229.464
228.96
228.46
227.966
227.476
226.991
226.511
226.035
225.563
225.096
224.634
224.175
223.721
223.27
222.824
222.382
221.944
221.509
221.078
220.651
221.152
219.808
219.392
218.979
218.57
218.164
217.761
217.362
216.966
216.573
216.183
215.796
215.413
215.032
214.654
214.28
213.908
213.538
213.172
212.808
212.448
212.089
211.734
211.381
211.03
210.682
210.337
209.994
209.653
209.315
208.98
208.646
208.315
207.986
207.659
207.335
207.013
206.692
206.374
206.059
205.745
205.433
205.123
204.815
204.51
204.206
203.904
203.604
203.306
203.01
202.715
203.336
202.132
201.843
201.555
201.27
200.986
200.704
200.423
200.144
199.867
199.591
199.317
199.045
198.774
198.505
198.237
197.971
197.706
197.443
197.181
196.92
196.661
196.404
196.148
195.893
195.639
195.387
195.137
194.887
194.639
194.393
194.147
193.903
193.66
193.418
193.178
192.939
192.701
192.464
192.228
191.994
191.761
191.529
191.298
191.068
190.839
190.612
190.385
190.16
190.296
189.713
189.491
189.269
189.049
188.83
188.612
188.396
188.18
187.965
187.751
187.538
187.326
187.115
186.905
186.695
186.487
186.28
186.074
185.868
185.664
185.46
185.257
185.055
184.854
184.654
184.455
184.257
184.059
183.862
183.667
183.472
183.277
183.084
182.891
182.7
182.509
182.318
182.129
181.94
181.752
181.565
181.379
181.193
181.008
180.824
180.641
180.458
180.276
180.095
179.914
179.734
179.555
179.377
179.199
179.022
178.846
178.67
178.495
178.321
178.147
177.974
177.802
177.63
177.459
177.288
177.118
176.949
176.781
176.613
176.445
176.279
176.112
175.947
175.782
175.618
175.454
175.291
175.128
174.966
174.805
174.644
174.483
174.324
174.165
174.006
173.848
173.69
173.533
173.377
173.221
173.066
172.911
172.756
172.603
172.449
172.297
172.144
171.992
171.841
171.69
171.54
171.39
171.241
171.092
170.944
170.796
170.649
170.502
170.356
170.21
170.064
169.92
169.775
169.631
169.487
169.344
169.202
169.059
168.918
168.776
168.635
168.495
168.355
168.215
168.076
167.937
167.799
167.661
167.524
167.387
167.25
167.114
166.978
166.842
166.707
166.573
166.439
166.305
166.171
166.038
165.906
165.774
165.642
165.51
165.379
165.249
165.118
164.988
164.859
164.729
164.601
164.472
164.344
164.216
164.089
163.962
163.835
163.709
163.583
163.458
163.332
163.208
163.083
162.959
162.835
162.712
162.588
162.466
162.343
162.221
162.099
161.978
161.856
161.736
161.615
161.495
161.375
161.256
161.136
161.017
160.899
160.781
160.663
160.545
160.428
160.311
160.194
160.077
159.961
159.846
159.73
159.615
159.5
159.385
159.271
159.157
159.043
158.93
158.817
158.704
158.591
158.479
158.367
158.255
158.144
158.032
157.922
157.811
157.701
157.591
157.481
157.371
157.262
157.153
157.044
156.936
156.828
156.72
156.612
156.505
156.397
156.291
156.184
156.078
155.971
155.866
155.76
155.655
155.55
155.445
155.34
155.236
155.132
155.028
154.924
154.821
154.718
154.615
154.512
154.41
154.307
154.205
154.104
154.002
153.901
153.8
153.699
153.599
153.498
153.398
153.298
153.199
153.099
153
152.901
152.802
152.704
152.606
152.508
152.41
152.312
152.215
152.117
152.02
151.924
151.827
151.731
151.635
151.539
151.443
151.347
151.252
151.157
151.062
150.967
150.873
150.779
150.685
150.591
150.497
150.404
150.31
150.217
150.124
150.032
149.939
149.847
149.755
149.663
149.571
149.48
149.388
149.297
149.206
149.115
149.025
148.935
148.844
148.754
148.665
148.575
148.485
148.396
148.307
148.218
148.129
148.041
147.953
147.864
147.776
147.689
147.601
147.513
147.426
147.339
147.252
147.165
147.079
146.992
146.906
146.82
146.734
146.648
146.563
146.477
146.392
146.307
146.222
146.137
146.053
145.968
145.884
145.8
145.716
145.633
145.549
145.466
145.382
145.299
145.216
145.133
145.051
144.968
144.886
144.804
144.722
144.64
144.558
144.477
144.395
144.314
144.233
144.152
144.071
143.991
143.91
143.83
143.75
143.67
143.59
143.51
143.431
143.351
143.272
143.193
143.114
143.035
142.956
142.878
142.799
142.721
142.643
142.565
142.487
142.409
142.332
142.254
142.177
142.1
142.023
141.946
141.869
141.793
141.716
141.64
141.564
141.488
141.412
141.336
141.261
141.185
141.11
141.034
140.959
140.884
140.81
140.735
140.66
140.586
140.511
140.437
140.363
140.289
140.215
140.142
140.068
139.995
139.921
139.848
139.775
139.702
139.63
139.557
139.484
139.412
139.34
139.267
139.195
139.123
139.052
138.98
138.908
138.837
138.765
138.694
138.623
138.552
138.481
138.411
138.34
138.269
138.199
138.129
138.059
137.989
137.919
137.849
137.779
137.71
137.64
137.571
137.502
137.432
137.363
137.295
137.226
137.157
137.089
137.02
136.952
136.883
136.815
136.747
136.679
136.612
136.544
136.476
136.409
136.342
136.274
136.207
136.14
136.073
136.006
135.94
135.873
135.807
135.74
135.674
135.608
135.542
135.476
135.41
135.344
135.278
135.213
135.147
135.082
135.017
134.951
134.886
134.821
134.756
134.692
134.627
134.562
134.498
134.434
134.369
134.305
134.241
134.177
134.113
134.049
133.986
133.922
133.859
133.795
133.732
133.618
133.606
133.543
133.48
133.417
133.354
133.292
133.229
133.167
133.104
133.042
132.98
132.918
132.856
132.794
132.732
132.67
132.609
132.547
132.486
132.424
132.363
132.302
132.241
132.18
132.119
132.058
131.997
131.937
131.876
131.816
131.755
131.695
131.635
131.575
131.515
131.455
131.395
131.335
131.276
131.216
131.157
131.097
131.038
130.979
130.919
130.86
130.801
130.742
130.684
130.625
130.566
130.508
130.449
130.391
130.332
130.274
130.216
130.158
130.1
130.042
129.984
129.926
129.869
129.811
129.754
129.696
129.639
129.581
129.524
129.467
129.41
129.353
129.296
129.239
129.183
129.126
129.069
129.013
128.957
128.9
128.844
128.788
128.732
128.676
128.62
128.564
128.508
128.452
128.397
128.341
128.285
128.23
128.175
128.119
128.064
128.009
127.954
127.899
127.844
127.789
127.734
127.68
127.625
127.571
127.516
127.462
127.407
127.353
127.299
127.245
127.191
127.137
127.083
127.029
126.975
126.922
126.868
126.814
126.761
126.708
126.654
126.601
126.548
126.495
126.442
126.389
126.336
126.283
126.23
126.177
126.125
126.072
126.02
125.967
125.915
125.862
125.81
125.758
125.706
125.654
125.602
125.55
125.498
125.446
125.395
125.343
125.291
125.24
125.188
125.137
125.086
125.034
124.983
124.932
124.881
124.83
124.779
124.728
124.677
124.627
124.576
124.525
124.475
124.424
124.374
124.323
124.273
124.223
124.173
124.123
124.072
124.022
123.973
123.923
123.873
123.823
123.773
123.724
123.674
123.625
123.575
123.526
123.476
123.427
123.378
123.329
123.28
123.231
123.182
123.133
123.084