/*--------------------------------*- C++ -*----------------------------------*\
| =========                 |                                                 |
| \\      /  F ield         | OpenFOAM: The Open Source CFD Toolbox           |
|  \\    /   O peration     | Version:  2.3.1                                 |
|   \\  /    A nd           | Web:      www.OpenFOAM.org                      |
|    \\/     M anipulation  |                                                 |
\*---------------------------------------------------------------------------*/
FoamFile
{
    version     2.0;
    format      ascii;
    class       volScalarField;
    location    "1e-06";
    object      rho;
}
// * * * * * * * * * * * * * * * * * * * * * * * * * * * * * * * * * * * * * //

dimensions      [1 -3 0 0 0 0 0];

internalField   nonuniform List<scalar> 
10000
(
980.993
980.895
980.797
980.699
980.601
980.503
980.405
980.307
980.209
980.111
980.013
979.914
979.816
979.718
979.62
979.521
979.423
979.325
979.226
979.128
979.03
978.931
978.833
978.734
978.636
978.537
978.438
978.34
978.241
978.142
978.044
977.945
977.846
977.747
977.648
977.549
977.451
977.352
977.253
977.154
977.055
976.956
976.856
976.757
976.658
976.559
976.46
976.36
976.261
976.162
976.063
975.963
975.864
975.764
975.665
975.565
975.466
975.366
975.267
975.167
975.067
974.968
974.868
974.768
974.669
974.569
974.469
974.369
974.269
974.169
974.069
973.969
973.869
973.769
973.669
973.569
973.469
973.369
973.269
973.168
973.068
972.968
972.867
972.767
972.667
972.566
972.466
972.365
972.265
972.164
972.064
971.963
971.863
971.762
971.661
971.56
971.46
971.359
971.258
971.157
971.056
970.955
970.854
970.753
970.652
970.551
970.45
970.349
970.248
970.147
970.046
969.944
969.843
969.742
969.641
969.539
969.438
969.336
969.235
969.133
969.032
968.93
968.829
968.727
968.626
968.524
968.422
968.32
968.219
968.117
968.015
967.913
967.811
967.709
967.607
967.505
967.403
967.301
967.199
967.097
966.995
966.893
966.79
966.688
966.586
966.484
966.381
966.279
966.176
966.074
965.972
965.869
965.766
965.664
965.561
965.459
965.356
965.253
965.151
965.048
964.945
964.842
964.739
964.636
964.533
964.43
964.327
964.224
964.121
964.018
963.915
963.812
963.709
963.606
963.502
963.399
963.296
963.192
963.089
962.985
962.882
962.779
962.675
962.571
962.468
962.364
962.261
962.157
962.053
961.949
961.846
961.742
961.638
961.534
961.43
961.326
961.222
961.118
961.014
960.91
960.806
960.702
960.598
960.493
960.389
960.285
960.181
960.076
959.972
959.867
959.763
959.658
959.554
959.449
959.345
959.24
959.135
959.031
958.926
958.821
958.717
958.612
958.507
958.402
958.297
958.192
958.087
957.982
957.877
957.772
957.667
957.562
957.456
957.351
957.246
957.141
957.035
956.93
956.825
956.719
956.614
956.508
956.403
956.297
956.191
956.086
955.98
955.874
955.769
955.663
955.557
955.451
955.345
955.239
955.134
955.028
954.922
954.815
954.709
954.603
954.497
954.391
954.285
954.178
954.072
953.966
953.859
953.753
953.647
953.54
953.434
953.327
953.221
953.114
953.007
952.901
952.794
952.687
952.58
952.474
952.367
952.26
952.153
952.046
951.939
951.832
951.725
951.618
951.511
951.404
951.296
951.189
951.082
950.975
950.867
950.76
950.653
950.545
950.438
950.33
950.223
950.115
950.007
949.9
949.792
949.684
949.577
949.469
949.361
949.253
949.145
949.037
948.929
948.821
948.713
948.605
948.497
948.389
948.281
948.172
948.064
947.956
947.848
947.739
947.631
947.522
947.414
947.305
947.197
947.088
946.98
946.871
946.762
946.654
946.545
946.436
946.327
946.218
946.109
946.001
945.892
945.783
945.673
945.564
945.455
945.346
945.237
945.128
945.018
944.909
944.8
944.69
944.581
944.472
944.362
944.253
944.143
944.033
943.924
943.814
943.704
943.595
943.485
943.375
943.265
943.155
943.045
942.935
942.825
942.715
942.605
942.495
942.385
942.275
942.165
942.054
941.944
941.834
941.723
941.613
941.503
941.392
941.282
941.171
941.061
940.95
940.839
940.729
940.618
940.507
940.396
940.285
940.175
940.064
939.953
939.842
939.731
939.62
939.508
939.397
939.286
939.175
939.064
938.952
938.841
938.73
938.618
938.507
938.395
938.284
938.172
938.061
937.949
937.837
937.726
937.614
937.502
937.39
937.278
937.166
937.055
936.943
936.831
936.719
936.606
936.494
936.382
936.27
936.158
936.045
935.933
935.821
935.708
935.596
935.483
935.371
935.258
935.146
935.033
934.921
934.808
934.695
934.582
934.47
934.357
934.244
934.131
934.018
933.905
933.792
933.679
933.566
933.452
933.339
933.226
933.113
932.999
932.886
932.773
932.659
932.546
932.432
932.319
932.205
932.091
931.978
931.864
931.75
931.637
931.523
931.409
931.295
931.181
931.067
930.953
930.839
930.725
930.611
930.497
930.382
930.268
930.154
930.04
929.925
929.811
929.696
929.582
929.467
929.353
929.238
929.123
929.009
928.894
928.779
928.664
928.55
928.435
928.32
928.205
927.798
927.975
927.86
927.745
927.629
927.514
927.399
927.284
927.168
927.053
926.938
926.822
926.707
926.591
926.476
926.36
926.244
926.129
926.013
925.897
925.781
925.666
925.55
925.434
925.318
925.202
925.086
924.97
924.853
924.737
924.621
924.505
924.389
924.272
924.156
924.039
923.923
923.806
923.69
923.573
923.457
923.34
923.223
923.107
922.99
922.873
922.756
922.639
922.522
922.405
922.288
922.171
922.054
921.937
921.82
921.703
921.585
921.468
921.351
921.233
921.116
920.998
920.881
920.763
920.646
920.528
920.41
920.293
920.175
920.057
919.939
919.821
919.703
919.585
919.467
919.349
919.231
919.113
918.995
918.877
918.758
918.64
918.522
918.403
918.285
918.166
918.048
917.929
917.811
917.692
917.573
917.455
917.336
917.217
917.098
916.979
916.86
916.741
916.622
916.503
916.384
916.265
916.146
916.027
915.907
915.788
915.669
915.549
915.43
915.31
915.191
915.071
914.952
914.832
914.712
914.592
914.473
914.353
914.233
914.113
913.993
913.873
913.753
913.633
913.513
913.393
913.272
913.152
913.032
912.911
912.791
912.671
912.55
912.43
912.309
912.188
912.068
911.947
911.826
911.705
911.585
911.464
911.343
911.222
911.101
910.98
910.859
910.738
910.616
910.495
910.374
910.253
910.131
910.01
909.888
909.767
909.645
909.524
909.402
909.281
909.159
909.037
908.915
908.794
908.672
908.55
908.428
908.306
908.184
908.062
907.939
907.817
907.695
907.573
907.45
907.328
907.206
907.083
906.961
906.838
906.716
906.593
906.47
906.348
906.225
906.102
905.979
905.856
905.733
905.61
905.487
905.364
905.241
905.118
904.995
904.871
904.748
904.625
904.501
904.378
904.254
904.131
904.007
903.884
903.76
903.636
903.512
903.389
903.265
903.141
903.017
902.893
902.769
902.645
902.521
902.397
902.272
902.148
902.024
901.899
901.775
901.651
901.526
901.401
901.277
901.152
901.028
900.903
900.778
900.653
900.528
900.404
900.279
900.154
900.029
899.903
899.778
899.653
899.528
899.403
899.277
899.152
899.026
898.901
898.776
898.65
898.524
898.399
898.273
898.147
898.021
897.896
897.77
897.644
897.518
897.392
897.266
897.14
897.013
896.887
896.761
896.635
896.508
896.382
896.255
896.129
896.002
895.876
895.749
895.622
895.496
895.369
895.242
895.115
894.988
894.861
894.734
894.607
894.48
894.353
894.226
894.099
893.971
893.844
893.716
893.589
893.462
893.334
893.206
893.079
892.951
892.823
892.696
892.568
892.44
892.312
892.184
892.056
891.928
891.8
891.672
891.543
891.415
891.287
891.158
891.03
890.901
890.773
890.644
890.516
890.387
890.258
890.13
890.001
889.872
889.743
889.614
889.485
889.356
889.227
889.098
888.969
888.839
888.71
888.581
888.451
888.322
888.192
888.063
887.933
887.804
887.674
887.544
887.414
887.285
887.155
887.025
886.895
886.765
886.635
886.505
886.374
886.244
886.114
885.983
885.853
885.723
885.592
885.462
885.331
885.2
885.07
884.939
884.808
884.677
884.546
884.416
884.285
884.154
884.022
883.891
883.76
883.629
883.498
883.366
883.235
883.103
882.972
882.84
882.709
882.577
882.445
882.314
882.182
882.05
881.918
881.786
881.654
881.522
881.39
881.258
881.126
880.993
880.861
880.729
880.596
880.464
880.331
880.199
880.066
879.933
879.801
879.668
879.535
879.402
879.269
879.136
879.003
878.87
878.737
878.604
878.47
878.337
878.204
878.07
877.937
877.803
877.67
877.536
877.403
877.269
877.135
877.001
876.867
876.734
876.6
876.466
876.331
876.197
876.063
875.929
875.795
875.66
875.526
875.391
875.257
875.122
874.988
874.853
874.718
874.584
874.449
874.314
874.179
874.044
873.909
873.774
873.639
873.503
873.368
873.233
873.097
872.962
872.827
872.691
872.556
872.42
872.284
872.148
872.013
871.877
871.741
871.605
871.469
871.333
871.197
871.061
870.924
870.788
870.652
870.515
870.379
870.242
870.106
869.969
869.833
869.696
869.559
869.422
869.285
869.149
869.012
868.874
868.737
868.6
868.463
868.326
868.188
868.051
867.914
867.776
867.639
867.501
867.363
867.226
867.088
866.95
866.812
866.674
866.536
866.398
866.26
866.122
865.984
865.846
865.707
865.569
865.43
865.292
865.153
864.317
864.876
864.737
864.599
864.46
864.321
864.182
864.043
863.904
863.765
863.626
863.486
863.347
863.208
863.068
862.929
862.789
862.65
862.51
862.371
862.231
862.091
861.951
861.811
861.671
861.531
861.391
861.251
861.111
860.971
860.83
860.69
860.55
860.409
860.269
860.128
859.987
859.847
859.706
859.565
859.424
859.283
859.142
859.001
858.86
858.719
858.578
858.436
858.295
858.154
858.012
857.871
857.729
857.587
857.446
857.304
857.162
857.02
856.878
856.736
856.594
856.452
856.31
856.168
856.026
855.883
855.741
855.598
855.456
855.313
855.171
855.028
854.885
854.742
854.599
854.457
854.314
854.17
854.027
853.884
853.741
853.598
853.454
853.311
853.167
853.024
852.88
852.737
852.593
852.449
852.305
852.161
852.017
851.873
851.729
851.585
851.441
851.297
851.152
851.008
850.864
850.719
850.575
850.43
850.285
850.14
849.996
849.851
849.706
849.561
849.416
849.271
849.125
848.98
848.835
848.69
848.544
848.399
848.253
848.108
847.962
847.816
847.67
847.524
847.379
847.233
847.087
846.94
846.794
846.648
846.502
846.355
846.209
846.063
845.916
845.769
845.623
845.476
845.329
845.182
845.035
844.888
844.741
844.594
844.447
844.3
844.153
844.005
843.858
843.71
843.563
843.415
843.267
843.12
842.972
842.824
842.676
842.528
842.38
842.232
842.084
841.936
841.787
841.639
841.49
841.342
841.193
841.045
840.896
840.747
840.598
840.449
840.301
840.151
840.002
839.853
839.704
839.555
839.405
839.256
839.107
838.957
838.807
838.658
838.508
838.358
838.208
838.058
837.908
837.758
837.608
837.458
837.308
837.157
837.007
836.857
836.706
836.555
836.405
836.254
836.103
835.952
835.801
835.65
835.499
835.348
835.197
835.046
834.895
834.743
834.592
834.44
834.289
834.137
833.985
833.833
833.682
833.53
833.378
833.226
833.073
832.921
832.769
832.617
832.464
832.312
832.159
832.007
831.854
831.701
831.548
831.396
831.243
831.09
830.937
830.783
830.63
830.477
830.324
830.17
830.017
829.863
829.709
829.556
829.402
829.248
829.094
828.94
828.786
828.632
828.478
828.324
828.169
828.015
827.861
827.706
827.551
827.397
827.242
827.087
826.932
826.777
826.622
826.467
826.312
826.157
826.002
825.846
825.691
825.535
825.38
825.224
825.068
824.913
824.757
824.601
824.445
824.289
824.133
823.976
823.82
823.664
823.507
823.351
823.194
823.038
822.881
822.724
822.567
822.41
822.253
822.096
821.939
821.782
821.625
821.467
821.31
821.152
820.995
820.837
820.679
820.522
820.364
820.206
820.048
819.89
819.731
819.573
819.415
819.257
819.098
818.94
818.781
818.622
818.464
818.305
818.146
817.987
817.828
817.669
817.51
817.35
817.191
817.032
816.872
816.712
816.553
816.393
816.233
816.074
815.914
815.754
815.593
815.433
815.273
815.113
814.952
814.792
814.631
814.471
814.31
814.149
813.989
813.828
813.667
813.506
813.344
813.183
813.022
812.861
812.699
812.538
812.376
812.214
812.053
811.891
811.729
811.567
811.405
811.243
811.081
810.918
810.756
810.593
810.431
810.268
810.106
809.943
809.78
809.617
809.454
809.291
809.128
808.965
808.802
808.638
808.475
808.311
808.148
807.984
807.82
807.656
807.492
807.328
807.164
807
806.836
806.672
806.507
806.343
806.178
806.014
805.849
805.684
805.519
805.354
805.189
805.024
804.859
804.694
804.528
804.363
804.198
804.032
803.866
803.701
803.535
803.369
803.203
803.037
802.871
802.704
802.538
802.372
802.205
802.039
801.872
801.705
801.538
801.372
801.205
801.038
800.87
800.703
800.536
800.369
800.201
800.034
799.866
799.698
799.531
799.363
799.195
799.027
798.859
798.69
798.522
798.354
798.185
798.017
797.848
797.679
797.511
797.342
797.173
797.004
796.835
796.666
796.496
796.327
796.157
795.988
795.818
795.649
795.479
795.309
795.139
794.969
794.799
794.629
794.458
794.288
794.117
793.947
793.776
793.605
793.435
793.264
793.093
792.922
792.751
792.579
792.408
792.237
792.065
791.894
791.722
791.55
791.378
791.206
791.034
790.862
790.69
790.518
790.345
790.173
790
789.828
789.655
789.482
789.309
789.136
788.963
788.79
788.617
788.443
788.27
788.097
787.923
787.749
786.258
787.402
787.228
787.054
786.879
786.705
786.531
786.356
786.182
786.007
785.833
785.658
785.483
785.308
785.133
784.958
784.783
784.607
784.432
784.257
784.081
783.905
783.73
783.554
783.378
783.202
783.026
782.849
782.673
782.497
782.32
782.144
781.967
781.79
781.613
781.436
781.259
781.082
780.905
780.727
780.55
780.373
780.195
780.017
779.839
779.662
779.484
779.305
779.127
778.949
778.771
778.592
778.414
778.235
778.056
777.877
777.699
777.52
777.34
777.161
776.982
776.803
776.623
776.443
776.264
776.084
775.904
775.724
775.544
775.364
775.184
775.003
774.823
774.642
774.462
774.281
774.1
773.919
773.738
773.557
773.376
773.194
773.013
772.831
772.65
772.468
772.286
772.104
771.922
771.74
771.558
771.376
771.193
771.011
770.828
770.645
770.463
770.28
770.097
769.913
769.73
769.547
769.364
769.18
768.996
768.813
768.629
768.445
768.261
768.077
767.893
767.708
767.524
767.339
767.155
766.97
766.785
766.6
766.415
766.23
766.045
765.86
765.674
765.489
765.303
765.117
764.931
764.745
764.559
764.373
764.187
764.001
763.814
763.628
763.441
763.254
763.067
762.88
762.693
762.506
762.319
762.131
761.944
761.756
761.568
761.381
761.193
761.005
760.816
760.628
760.44
760.251
760.063
759.874
759.685
759.496
759.307
759.118
758.929
758.74
758.55
758.361
758.171
757.981
757.792
757.602
757.412
757.221
757.031
756.841
756.65
756.46
756.269
756.078
755.887
755.696
755.505
755.314
755.122
754.931
754.739
754.547
754.355
754.164
753.971
753.779
753.587
753.395
753.202
753.01
752.817
752.624
752.431
752.238
752.045
751.852
751.658
751.465
751.271
751.077
750.883
750.689
750.495
750.301
750.107
749.913
749.718
749.523
749.329
749.134
748.939
748.744
748.548
748.353
748.158
747.962
747.766
747.571
747.375
747.179
746.983
746.786
746.59
746.393
746.197
746
745.803
745.606
745.409
745.212
745.015
744.817
744.62
744.422
744.224
744.026
743.828
743.63
743.432
743.233
743.035
742.836
742.638
742.439
742.24
742.041
741.841
741.642
741.443
741.243
741.043
740.843
740.643
740.443
740.243
740.043
739.842
739.642
739.441
739.24
739.039
738.838
738.637
738.436
738.234
738.033
737.831
737.629
737.427
737.225
737.023
736.821
736.619
736.416
736.213
736.011
735.808
735.605
735.401
735.198
734.995
734.791
734.587
734.384
734.18
733.976
733.771
733.567
733.363
733.158
732.953
732.748
732.544
732.338
732.133
731.928
731.722
731.517
731.311
731.105
730.899
730.693
730.487
730.28
730.074
729.867
729.66
729.453
729.246
729.039
728.832
728.624
728.417
728.209
728.001
727.793
727.585
727.377
727.169
726.96
726.751
726.543
726.334
726.125
725.915
725.706
725.497
725.287
725.077
724.867
724.657
724.447
724.237
724.027
723.816
723.605
723.395
723.184
722.973
722.761
722.55
722.338
722.127
721.915
721.703
721.491
721.279
721.066
720.854
720.641
720.428
720.216
720.002
719.789
719.576
719.362
719.149
718.935
718.721
718.507
718.293
718.079
717.864
717.649
717.435
717.22
717.005
716.79
716.574
716.359
716.143
715.927
715.711
715.495
715.279
715.063
714.846
714.63
714.413
714.196
713.979
713.761
713.544
713.327
713.109
712.891
712.673
712.455
712.237
712.018
711.8
711.581
711.362
711.143
710.924
710.704
710.485
710.265
710.045
709.825
709.605
709.385
709.165
708.944
708.723
708.503
708.282
708.06
707.839
707.618
707.396
707.174
706.952
706.73
706.508
706.285
706.063
705.84
705.617
705.394
705.171
704.948
704.724
704.5
704.277
704.053
703.828
703.604
703.38
703.155
702.93
702.705
702.48
702.255
702.029
701.804
701.578
701.352
701.126
700.9
700.673
700.447
700.22
699.993
699.766
699.539
699.311
699.084
698.856
698.628
698.4
698.172
697.944
697.715
697.486
697.257
697.028
696.799
696.57
696.34
696.11
695.88
695.65
695.42
695.19
694.959
694.728
694.497
694.266
694.035
693.804
693.572
693.34
693.108
692.876
692.644
692.411
692.179
691.946
691.713
691.48
691.246
691.013
690.779
690.545
690.311
690.077
689.842
689.608
689.373
689.138
688.903
688.668
688.432
688.197
687.961
687.725
687.488
687.252
687.015
688.396
686.542
686.305
686.067
685.83
685.592
685.354
685.116
684.878
684.64
684.401
684.162
683.923
683.684
683.445
683.205
682.966
682.726
682.486
682.245
682.005
681.764
681.523
681.282
681.041
680.8
680.558
680.316
680.074
679.832
679.59
679.347
679.104
678.861
678.618
678.375
678.131
677.887
677.644
677.399
677.155
676.911
676.666
676.421
676.176
675.93
675.685
675.439
675.193
674.947
674.701
674.454
674.208
673.961
673.714
673.466
673.219
672.971
672.723
672.475
672.226
671.978
671.729
671.48
671.231
670.982
670.732
670.482
670.232
669.982
669.732
669.481
669.23
668.979
668.728
668.476
668.225
667.973
667.721
667.468
667.216
666.963
666.71
666.457
666.203
665.95
665.696
665.442
665.188
664.933
664.679
664.424
664.168
663.913
663.658
663.402
663.146
662.889
662.633
662.376
662.119
661.862
661.605
661.347
661.09
660.832
660.573
660.315
660.056
659.797
659.538
659.279
659.019
658.759
658.499
658.239
657.978
657.717
657.456
657.195
656.934
656.672
656.41
656.148
655.885
655.623
655.36
655.097
654.833
654.57
654.306
654.042
653.778
653.513
653.248
652.983
652.718
652.452
652.187
651.921
651.654
651.388
651.121
650.854
650.587
650.319
650.052
649.784
649.515
649.247
648.978
648.709
648.44
648.171
647.901
647.631
647.361
647.09
646.819
646.548
646.277
646.006
645.734
645.462
645.189
644.917
644.644
644.371
644.098
643.824
643.55
643.276
643.002
642.727
642.452
642.177
641.902
641.626
641.35
641.074
640.797
640.52
640.243
639.966
639.688
639.41
639.132
638.854
638.575
638.296
638.017
637.737
637.458
637.178
636.897
636.617
636.336
636.054
635.773
635.491
635.209
634.927
634.644
634.361
634.078
633.795
633.511
633.227
632.943
632.658
632.373
632.088
631.802
631.517
631.23
630.944
630.657
630.37
630.083
629.796
629.508
629.22
628.931
628.642
628.353
628.064
627.774
627.484
627.194
626.903
626.612
626.321
626.03
625.738
625.446
625.153
624.861
624.568
624.274
623.98
623.686
623.392
623.098
622.803
622.507
622.212
621.916
621.62
621.323
621.026
620.729
620.431
620.133
619.835
619.537
619.238
618.939
618.639
618.339
618.039
617.739
617.438
617.137
616.835
616.533
616.231
615.929
615.626
615.322
615.019
614.715
614.411
614.106
613.801
613.496
613.19
612.884
612.578
612.271
611.964
611.657
611.349
611.041
610.733
610.424
610.114
609.805
609.495
609.185
608.874
608.563
608.252
607.94
607.628
607.315
607.003
606.689
606.376
606.062
605.747
605.433
605.118
604.802
604.486
604.17
603.853
603.536
603.219
602.901
602.583
602.265
601.946
601.626
601.307
600.986
600.666
600.345
600.024
599.702
599.38
599.057
598.734
598.411
598.087
597.763
597.439
597.114
596.788
596.462
596.136
595.81
595.483
595.155
594.827
594.499
594.17
593.841
593.512
593.182
592.851
592.52
592.189
591.857
591.525
591.192
590.859
590.526
590.192
589.858
589.523
589.188
588.852
588.516
588.179
587.842
587.505
587.167
586.828
586.489
586.15
585.81
585.47
585.129
584.788
584.446
584.104
583.762
583.419
583.075
582.731
582.387
582.042
581.696
581.35
581.004
580.657
580.309
579.961
579.613
579.264
578.915
578.565
578.214
577.863
577.512
577.16
576.808
576.455
576.101
575.747
575.393
575.038
574.682
574.326
573.97
573.612
573.255
572.897
572.538
572.179
571.819
571.459
571.098
570.736
570.374
570.012
569.649
569.285
568.921
568.556
568.191
567.825
567.459
567.092
566.724
566.356
565.987
565.618
565.248
564.878
564.507
564.135
563.763
563.39
563.017
562.643
562.268
561.893
561.517
561.141
560.764
560.386
560.008
559.629
559.249
558.869
558.489
558.107
557.725
557.343
556.959
556.575
556.191
555.806
555.42
555.033
554.646
554.258
553.87
553.48
553.091
552.7
552.309
551.917
551.525
551.131
550.737
550.343
549.948
549.552
549.155
548.758
548.359
547.961
547.561
547.161
546.76
546.358
545.956
545.553
545.149
544.744
544.339
543.933
543.526
543.118
542.71
542.301
541.891
541.48
541.069
540.657
540.244
539.83
539.415
539
538.584
538.167
537.749
537.33
536.911
536.491
536.07
535.648
535.225
534.802
534.377
533.952
533.526
533.099
534.382
532.243
531.813
531.383
530.952
530.519
530.086
529.653
529.218
528.782
528.345
527.908
527.469
527.03
526.59
526.148
525.706
525.263
524.819
524.374
523.928
523.481
523.033
522.584
522.134
521.683
521.232
520.779
520.325
519.87
519.414
518.957
518.499
518.04
517.58
517.119
516.657
516.193
515.729
515.264
514.797
514.33
513.861
513.391
512.92
512.448
511.975
511.501
511.026
510.549
510.071
511.948
509.112
508.631
508.149
507.665
507.18
506.694
506.207
505.719
505.229
504.738
504.246
503.752
503.258
502.762
502.264
501.766
501.266
500.765
500.262
499.758
499.253
498.746
498.238
497.729
497.218
496.706
496.193
495.678
495.162
494.644
494.125
493.604
493.082
492.558
492.033
491.506
490.978
490.449
489.917
489.385
488.85
488.314
487.777
487.238
486.697
486.155
485.611
485.065
486.628
483.969
483.419
482.866
482.312
481.757
481.199
480.64
480.079
479.516
478.951
478.385
477.817
477.246
476.674
476.1
475.525
474.947
474.367
473.786
473.202
472.616
472.029
471.439
470.848
470.254
469.658
469.06
468.46
467.858
467.254
466.647
466.038
465.427
464.814
464.199
463.581
462.961
462.339
461.714
461.087
460.457
459.825
459.191
458.554
457.915
457.273
456.628
455.981
455.332
454.68
456.871
453.367
452.707
452.044
451.378
450.709
450.038
449.364
448.686
448.006
447.323
446.637
445.948
445.256
444.56
443.862
443.16
442.456
441.748
441.036
440.322
439.604
438.882
438.158
437.429
436.697
435.962
435.223
434.481
433.734
432.984
432.23
431.473
430.711
429.946
429.176
428.403
427.625
426.844
426.058
425.268
424.473
423.675
422.872
422.064
421.252
420.435
419.614
418.788
420.685
417.121
416.281
415.435
414.585
413.729
412.868
412.002
411.13
410.254
409.371
408.484
407.59
406.691
405.786
404.875
403.958
403.036
402.107
401.172
400.23
399.282
398.328
397.367
396.4
395.426
394.445
393.457
392.462
391.459
390.45
389.433
388.409
387.378
386.338
385.291
384.236
383.174
382.103
381.024
379.937
378.842
377.738
376.626
375.505
374.376
373.237
372.09
370.934
369.769
371.869
367.412
366.22
365.019
363.808
362.588
361.359
360.12
358.872
357.615
356.349
355.073
353.788
352.494
351.192
349.88
348.559
347.23
345.893
344.547
343.193
341.832
340.463
339.087
337.704
336.314
334.919
333.518
332.112
330.701
329.286
327.868
326.447
325.023
323.597
322.171
320.744
319.317
317.891
316.467
315.046
313.627
312.213
310.803
309.399
308
306.609
305.225
303.849
302.482
304.865
299.777
298.44
297.114
295.8
294.498
293.208
291.931
290.667
289.416
288.179
286.956
285.748
284.553
283.373
282.207
281.056
279.92
278.798
277.69
276.597
275.519
274.455
273.405
272.37
271.348
270.34
269.347
268.366
267.399
266.446
265.505
264.578
263.663
262.76
261.87
260.992
260.126
259.271
258.428
257.597
256.776
255.966
255.167
254.378
253.6
252.832
252.073
251.325
250.585
251.504
249.135
248.423
247.72
247.026
246.34
245.662
244.993
244.331
243.678
243.032
242.393
241.762
241.138
240.522
239.912
239.309
238.713
238.123
237.54
236.963
236.392
235.828
235.269
234.716
234.169
233.628
233.092
232.562
232.037
231.517
231.003
230.493
229.989
229.489
228.994
228.504
228.019
227.538
227.062
226.59
226.122
225.659
225.2
224.745
224.294
223.847
223.404
222.965
222.53
223.04
221.67
221.246
220.826
220.408
219.995
219.584
219.177
218.774
218.373
217.976
217.582
217.191
216.804
216.419
216.037
215.658
215.282
214.909
214.539
214.171
213.806
213.444
213.085
212.728
212.373
212.022
211.672
211.326
210.981
210.64
210.3
209.963
209.628
209.296
208.965
208.637
208.311
207.988
207.666
207.347
207.03
206.714
206.401
206.09
205.781
205.474
205.168
204.865
204.564
204.264
204.896
203.67
203.376
203.084
202.793
202.505
202.218
201.932
201.649
201.367
201.086
200.808
200.531
200.255
199.981
199.709
199.438
199.169
198.901
198.635
198.37
198.107
197.845
197.584
197.325
197.068
196.811
196.557
196.303
196.051
195.8
195.551
195.302
195.056
194.81
194.566
194.322
194.081
193.84
193.601
193.362
193.125
192.889
192.655
192.421
192.189
191.958
191.728
191.499
191.637
191.044
190.818
190.594
190.37
190.148
189.926
189.706
189.487
189.268
189.051
188.834
188.619
188.405
188.191
187.979
187.768
187.557
187.347
187.139
186.931
186.724
186.518
186.313
186.109
185.906
185.704
185.502
185.302
185.102
184.903
184.705
184.508
184.311
184.116
183.921
183.727
183.534
183.342
183.15
182.959
182.77
182.58
182.392
182.204
182.017
181.831
181.646
181.461
181.277
181.094
180.911
180.729
180.548
180.368
180.188
180.009
179.831
179.653
179.476
179.3
179.125
178.95
178.775
178.602
178.429
178.256
178.085
177.914
177.743
177.573
177.404
177.236
177.068
176.9
176.734
176.568
176.402
176.237
176.073
175.909
175.746
175.583
175.421
175.26
175.099
174.938
174.779
174.619
174.461
174.302
174.145
173.988
173.831
173.675
173.52
173.365
173.21
173.057
172.903
172.75
172.598
172.446
172.295
172.144
171.993
171.844
171.694
171.545
171.397
171.249
171.101
170.955
170.808
170.662
170.516
170.371
170.227
170.082
169.939
169.795
169.652
169.51
169.368
169.227
169.086
168.945
168.805
168.665
168.526
168.387
168.248
168.11
167.972
167.835
167.698
167.562
167.426
167.29
167.155
167.02
166.886
166.752
166.618
166.485
166.352
166.22
166.088
165.956
165.825
165.694
165.563
165.433
165.303
165.174
165.045
164.916
164.788
164.66
164.532
164.405
164.278
164.151
164.025
163.899
163.774
163.649
163.524
163.4
163.276
163.152
163.028
162.905
162.783
162.66
162.538
162.416
162.295
162.174
162.053
161.933
161.812
161.693
161.573
161.454
161.335
161.217
161.098
160.981
160.863
160.746
160.629
160.512
160.396
160.279
160.164
160.048
159.933
159.818
159.703
159.589
159.475
159.361
159.248
159.135
159.022
158.909
158.797
158.685
158.573
158.462
158.351
158.24
158.129
158.019
157.909
157.799
157.689
157.58
157.471
157.362
157.254
157.146
157.038
156.93
156.822
156.715
156.608
156.502
156.395
156.289
156.183
156.078
155.972
155.867
155.762
155.657
155.553
155.449
155.345
155.241
155.138
155.035
154.932
154.829
154.726
154.624
154.522
154.42
154.319
154.218
154.116
154.016
153.915
153.815
153.714
153.614
153.515
153.415
153.316
153.217
153.118
153.02
152.921
152.823
152.725
152.627
152.53
152.432
152.335
152.239
152.142
152.045
151.949
151.853
151.757
151.662
151.566
151.471
151.376
151.281
151.187
151.092
150.998
150.904
150.81
150.717
150.623
150.53
150.437
150.344
150.252
150.159
150.067
149.975
149.883
149.792
149.7
149.609
149.518
149.427
149.337
149.246
149.156
149.066
148.976
148.886
148.796
148.707
148.618
148.529
148.44
148.351
148.263
148.174
148.086
147.998
147.911
147.823
147.736
147.648
147.561
147.474
147.388
147.301
147.215
147.128
147.042
146.957
146.871
146.785
146.7
146.615
146.53
146.445
146.36
146.276
146.191
146.107
146.023
145.939
145.855
145.772
145.688
145.605
145.522
145.439
145.356
145.274
145.191
145.109
145.027
144.945
144.863
144.781
144.7
144.619
144.537
144.456
144.375
144.295
144.214
144.134
144.053
143.973
143.893
143.813
143.733
143.654
143.574
143.495
143.416
143.337
143.258
143.179
143.101
143.023
142.944
142.866
142.788
142.71
142.633
142.555
142.478
142.4
142.323
142.246
142.169
142.092
142.016
141.939
141.863
141.787
141.711
141.635
141.559
141.483
141.408
141.332
141.257
141.182
141.107
141.032
140.957
140.883
140.808
140.734
140.66
140.586
140.512
140.438
140.364
140.291
140.217
140.144
140.071
139.998
139.925
139.852
139.779
139.706
139.634
139.562
139.489
139.417
139.345
139.273
139.202
139.13
139.059
138.987
138.916
138.845
138.774
138.703
138.632
138.562
138.491
138.421
138.35
138.28
138.21
138.14
138.07
138
137.931
137.861
137.792
137.723
137.653
137.584
137.515
137.447
137.378
137.309
137.241
137.172
137.104
137.036
136.968
136.9
136.832
136.764
136.697
136.629
136.562
136.494
136.427
136.36
136.293
136.226
136.159
136.093
136.026
135.96
135.893
135.827
135.761
135.695
135.629
135.563
135.497
135.432
135.366
135.301
135.235
135.17
135.105
135.04
134.975
134.91
134.846
134.781
134.716
134.652
134.588
134.523
134.459
134.395
134.331
134.216
134.204
134.14
134.076
134.013
133.95
133.886
133.823
133.76
133.697
133.634
133.571
133.509
133.446
133.384
133.321
133.259
133.197
133.134
133.072
133.01
132.949
132.887
132.825
132.764
132.702
132.641
132.579
132.518
132.457
132.396
132.335
132.274
132.213
132.152
132.092
132.031
131.971
131.911
131.85
131.79
131.73
131.67
131.61
131.55
131.49
131.431
131.371
131.312
131.252
131.193
131.134
131.075
131.016
130.957
130.898
130.839
130.78
130.721
130.663
130.604
130.546
130.488
130.429
130.371
130.313
130.255
130.197
130.139
130.082
130.024
129.966
129.909
129.851
129.794
129.737
129.679
129.622
129.565
129.508
129.451
129.395
129.338
129.281
129.225
129.168
129.112
129.055
128.999
128.943
128.887
128.831
128.775
128.719
128.663
128.607
128.552
128.496
128.441
128.385
128.33
128.275
128.219
128.164
128.109
128.054
127.999
127.944
127.89
127.835
127.78
127.726
127.671
127.617
127.562
127.508
127.454
127.4
127.346
127.292
127.238
127.184
127.13
127.077
127.023
126.969
126.916
126.862
126.809
126.756
126.703
126.649
126.596
126.543
126.49
126.437
126.385
126.332
126.279
126.227
126.174
126.122
126.069
126.017
125.965
125.912
125.86
125.808
125.756
125.704
125.652
125.601
125.549
125.497
125.446
125.394
125.343
125.291
125.24
125.189
125.137
125.086
125.035
124.984
124.933
124.882
124.831
124.781
124.73
124.679
124.629
124.578
124.528
124.477
124.427
124.377
124.326
124.276
124.226
124.176
124.126
124.076
124.026
123.977
123.927
123.877
123.828
123.778
123.729
123.679
123.63
123.581
123.531
123.482
123.433