/*--------------------------------*- C++ -*----------------------------------*\
| =========                 |                                                 |
| \\      /  F ield         | OpenFOAM: The Open Source CFD Toolbox           |
|  \\    /   O peration     | Version:  2.3.1                                 |
|   \\  /    A nd           | Web:      www.OpenFOAM.org                      |
|    \\/     M anipulation  |                                                 |
\*---------------------------------------------------------------------------*/
FoamFile
{
    version     2.0;
    format      ascii;
    class       volScalarField;
    location    "1e-06";
    object      rho;
}
// * * * * * * * * * * * * * * * * * * * * * * * * * * * * * * * * * * * * * //

dimensions      [1 -3 0 0 0 0 0];

internalField   nonuniform List<scalar> 
10000
(
984.125
984.027
983.929
983.831
983.733
983.635
983.537
983.439
983.341
983.243
983.145
983.047
982.948
982.85
982.752
982.654
982.555
982.457
982.359
982.26
982.162
982.063
981.965
981.866
981.768
981.669
981.571
981.472
981.373
981.274
981.176
981.077
980.978
980.879
980.78
980.681
980.583
980.484
980.385
980.286
980.186
980.087
979.988
979.889
979.79
979.691
979.591
979.492
979.393
979.293
979.194
979.095
978.995
978.896
978.796
978.697
978.597
978.497
978.398
978.298
978.198
978.099
977.999
977.899
977.799
977.699
977.599
977.5
977.4
977.3
977.2
977.1
976.999
976.899
976.799
976.699
976.599
976.498
976.398
976.298
976.198
976.097
975.997
975.896
975.796
975.695
975.595
975.494
975.394
975.293
975.192
975.092
974.991
974.89
974.789
974.688
974.588
974.487
974.386
974.285
974.184
974.083
973.982
973.881
973.779
973.678
973.577
973.476
973.375
973.273
973.172
973.071
972.969
972.868
972.766
972.665
972.563
972.462
972.36
972.259
972.157
972.055
971.953
971.852
971.75
971.648
971.546
971.444
971.342
971.241
971.139
971.037
970.934
970.832
970.73
970.628
970.526
970.424
970.321
970.219
970.117
970.015
969.912
969.81
969.707
969.605
969.502
969.4
969.297
969.195
969.092
968.989
968.886
968.784
968.681
968.578
968.475
968.372
968.269
968.167
968.064
967.961
967.857
967.754
967.651
967.548
967.445
967.342
967.238
967.135
967.032
966.928
966.825
966.722
966.618
966.515
966.411
966.308
966.204
966.1
965.997
965.893
965.789
965.686
965.582
965.478
965.374
965.27
965.166
965.062
964.958
964.854
964.75
964.646
964.542
964.438
964.334
964.229
964.125
964.021
963.916
963.812
963.708
963.603
963.499
963.394
963.29
963.185
963.08
962.976
962.871
962.766
962.662
962.557
962.452
962.347
962.242
962.137
962.032
961.927
961.822
961.717
961.612
961.507
961.402
961.297
961.191
961.086
960.981
960.875
960.77
960.665
960.559
960.454
960.348
960.243
960.137
960.031
959.926
959.82
959.714
959.609
959.503
959.397
959.291
959.185
959.079
958.973
958.867
958.761
958.655
958.549
958.443
958.337
958.23
958.124
958.018
957.912
957.805
957.699
957.592
957.486
957.379
957.273
957.166
957.06
956.953
956.846
956.74
956.633
956.526
956.419
956.312
956.206
956.099
955.992
955.885
955.778
955.67
955.563
955.456
955.349
955.242
955.135
955.027
954.92
954.813
954.705
954.598
954.49
954.383
954.275
954.168
954.06
953.952
953.845
953.737
953.629
953.522
953.414
953.306
953.198
953.09
952.982
952.874
952.766
952.658
952.55
952.442
952.333
952.225
952.117
952.009
951.9
951.792
951.684
951.575
951.467
951.358
951.25
951.141
951.032
950.924
950.815
950.706
950.597
950.489
950.38
950.271
950.162
950.053
949.944
949.835
949.726
949.617
949.508
949.399
949.289
949.18
949.071
948.961
948.852
948.743
948.633
948.524
948.414
948.305
948.195
948.086
947.976
947.866
947.756
947.647
947.537
947.427
947.317
947.207
947.097
946.987
946.877
946.767
946.657
946.547
946.437
946.327
946.216
946.106
945.996
945.885
945.775
945.664
945.554
945.443
945.333
945.222
945.112
945.001
944.89
944.78
944.669
944.558
944.447
944.336
944.225
944.114
944.003
943.892
943.781
943.67
943.559
943.448
943.337
943.225
943.114
943.003
942.891
942.78
942.668
942.557
942.445
942.334
942.222
942.11
941.999
941.887
941.775
941.663
941.552
941.44
941.328
941.216
941.104
940.992
940.88
940.768
940.656
940.543
940.431
940.319
940.207
940.094
939.982
939.869
939.757
939.644
939.532
939.419
939.307
939.194
939.081
938.969
938.856
938.743
938.63
938.517
938.404
938.291
938.178
938.065
937.952
937.839
937.726
937.613
937.5
937.386
937.273
937.16
937.046
936.933
936.819
936.706
936.592
936.479
936.365
936.251
936.138
936.024
935.91
935.796
935.682
935.569
935.455
935.341
935.227
935.113
934.998
934.884
934.77
934.656
934.542
934.427
934.313
934.199
934.084
933.97
933.855
933.741
933.626
933.512
933.397
933.282
933.167
933.053
932.938
932.823
932.708
932.593
932.478
932.363
932.248
932.133
932.018
931.903
931.787
931.672
931.557
931.442
931.326
931.211
930.802
930.98
930.864
930.749
930.633
930.517
930.402
930.286
930.17
930.054
929.939
929.823
929.707
929.591
929.475
929.359
929.242
929.126
929.01
928.894
928.778
928.661
928.545
928.429
928.312
928.196
928.079
927.963
927.846
927.729
927.613
927.496
927.379
927.262
927.146
927.029
926.912
926.795
926.678
926.561
926.444
926.326
926.209
926.092
925.975
925.857
925.74
925.623
925.505
925.388
925.27
925.153
925.035
924.918
924.8
924.682
924.564
924.447
924.329
924.211
924.093
923.975
923.857
923.739
923.621
923.503
923.385
923.266
923.148
923.03
922.911
922.793
922.675
922.556
922.438
922.319
922.2
922.082
921.963
921.844
921.726
921.607
921.488
921.369
921.25
921.131
921.012
920.893
920.774
920.655
920.536
920.416
920.297
920.178
920.058
919.939
919.82
919.7
919.581
919.461
919.341
919.222
919.102
918.982
918.862
918.743
918.623
918.503
918.383
918.263
918.143
918.023
917.903
917.782
917.662
917.542
917.422
917.301
917.181
917.06
916.94
916.819
916.699
916.578
916.458
916.337
916.216
916.095
915.974
915.854
915.733
915.612
915.491
915.37
915.249
915.127
915.006
914.885
914.764
914.642
914.521
914.4
914.278
914.157
914.035
913.914
913.792
913.67
913.549
913.427
913.305
913.183
913.061
912.939
912.817
912.695
912.573
912.451
912.329
912.207
912.085
911.962
911.84
911.718
911.595
911.473
911.35
911.228
911.105
910.983
910.86
910.737
910.614
910.492
910.369
910.246
910.123
910
909.877
909.754
909.631
909.507
909.384
909.261
909.138
909.014
908.891
908.767
908.644
908.52
908.397
908.273
908.149
908.026
907.902
907.778
907.654
907.53
907.406
907.282
907.158
907.034
906.91
906.786
906.662
906.537
906.413
906.289
906.164
906.04
905.915
905.791
905.666
905.542
905.417
905.292
905.167
905.043
904.918
904.793
904.668
904.543
904.418
904.293
904.167
904.042
903.917
903.792
903.666
903.541
903.416
903.29
903.165
903.039
902.913
902.788
902.662
902.536
902.411
902.285
902.159
902.033
901.907
901.781
901.655
901.529
901.402
901.276
901.15
901.024
900.897
900.771
900.644
900.518
900.391
900.265
900.138
900.011
899.885
899.758
899.631
899.504
899.377
899.25
899.123
898.996
898.869
898.742
898.615
898.487
898.36
898.233
898.105
897.978
897.85
897.723
897.595
897.467
897.34
897.212
897.084
896.956
896.829
896.701
896.573
896.445
896.316
896.188
896.06
895.932
895.804
895.675
895.547
895.419
895.29
895.162
895.033
894.904
894.776
894.647
894.518
894.389
894.261
894.132
894.003
893.874
893.745
893.616
893.486
893.357
893.228
893.099
892.969
892.84
892.71
892.581
892.451
892.322
892.192
892.062
891.933
891.803
891.673
891.543
891.413
891.283
891.153
891.023
890.893
890.763
890.633
890.502
890.372
890.241
890.111
889.981
889.85
889.719
889.589
889.458
889.327
889.197
889.066
888.935
888.804
888.673
888.542
888.411
888.28
888.148
888.017
887.886
887.755
887.623
887.492
887.36
887.229
887.097
886.965
886.834
886.702
886.57
886.438
886.306
886.174
886.042
885.91
885.778
885.646
885.514
885.382
885.249
885.117
884.984
884.852
884.72
884.587
884.454
884.322
884.189
884.056
883.923
883.79
883.657
883.525
883.391
883.258
883.125
882.992
882.859
882.726
882.592
882.459
882.325
882.192
882.058
881.925
881.791
881.657
881.524
881.39
881.256
881.122
880.988
880.854
880.72
880.586
880.452
880.317
880.183
880.049
879.914
879.78
879.645
879.511
879.376
879.241
879.107
878.972
878.837
878.702
878.567
878.432
878.297
878.162
878.027
877.892
877.757
877.621
877.486
877.351
877.215
877.08
876.944
876.809
876.673
876.537
876.401
876.266
876.13
875.994
875.858
875.722
875.586
875.449
875.313
875.177
875.041
874.904
874.768
874.631
874.495
874.358
874.222
874.085
873.948
873.811
873.674
873.537
873.401
873.263
873.126
872.989
872.852
872.715
872.578
872.44
872.303
872.165
872.028
871.89
871.753
871.615
871.477
871.339
871.201
871.064
870.926
870.788
870.65
870.511
870.373
870.235
870.097
869.958
869.82
869.681
869.543
869.404
869.266
869.127
868.988
868.849
868.711
868.572
868.433
868.294
868.155
868.016
867.876
867.036
867.598
867.458
867.319
867.179
867.04
866.9
866.761
866.621
866.481
866.341
866.202
866.062
865.922
865.782
865.642
865.501
865.361
865.221
865.081
864.94
864.8
864.659
864.519
864.378
864.237
864.097
863.956
863.815
863.674
863.533
863.392
863.251
863.11
862.969
862.827
862.686
862.545
862.403
862.262
862.12
861.979
861.837
861.695
861.554
861.412
861.27
861.128
860.986
860.844
860.702
860.56
860.417
860.275
860.133
859.99
859.848
859.705
859.563
859.42
859.277
859.134
858.992
858.849
858.706
858.563
858.42
858.277
858.133
857.99
857.847
857.703
857.56
857.417
857.273
857.129
856.986
856.842
856.698
856.554
856.41
856.266
856.122
855.978
855.834
855.69
855.546
855.401
855.257
855.113
854.968
854.824
854.679
854.534
854.389
854.245
854.1
853.955
853.81
853.665
853.52
853.374
853.229
853.084
852.939
852.793
852.648
852.502
852.357
852.211
852.065
851.919
851.773
851.628
851.482
851.336
851.189
851.043
850.897
850.751
850.604
850.458
850.312
850.165
850.018
849.872
849.725
849.578
849.431
849.284
849.138
848.99
848.843
848.696
848.549
848.402
848.254
848.107
847.959
847.812
847.664
847.517
847.369
847.221
847.073
846.925
846.777
846.629
846.481
846.333
846.185
846.037
845.888
845.74
845.591
845.443
845.294
845.145
844.997
844.848
844.699
844.55
844.401
844.252
844.103
843.954
843.804
843.655
843.506
843.356
843.207
843.057
842.907
842.758
842.608
842.458
842.308
842.158
842.008
841.858
841.708
841.558
841.407
841.257
841.107
840.956
840.806
840.655
840.504
840.354
840.203
840.052
839.901
839.75
839.599
839.448
839.296
839.145
838.994
838.842
838.691
838.539
838.388
838.236
838.084
837.932
837.78
837.629
837.477
837.324
837.172
837.02
836.868
836.715
836.563
836.411
836.258
836.105
835.953
835.8
835.647
835.494
835.341
835.188
835.035
834.882
834.729
834.575
834.422
834.269
834.115
833.961
833.808
833.654
833.5
833.346
833.193
833.039
832.885
832.73
832.576
832.422
832.268
832.113
831.959
831.804
831.65
831.495
831.34
831.185
831.031
830.876
830.721
830.565
830.41
830.255
830.1
829.944
829.789
829.633
829.478
829.322
829.166
829.011
828.855
828.699
828.543
828.387
828.231
828.074
827.918
827.762
827.605
827.449
827.292
827.136
826.979
826.822
826.665
826.508
826.351
826.194
826.037
825.88
825.723
825.565
825.408
825.25
825.093
824.935
824.778
824.62
824.462
824.304
824.146
823.988
823.83
823.671
823.513
823.355
823.196
823.038
822.879
822.721
822.562
822.403
822.244
822.085
821.926
821.767
821.608
821.449
821.289
821.13
820.971
820.811
820.651
820.492
820.332
820.172
820.012
819.852
819.692
819.532
819.372
819.212
819.051
818.891
818.73
818.57
818.409
818.248
818.088
817.927
817.766
817.605
817.444
817.282
817.121
816.96
816.798
816.637
816.475
816.314
816.152
815.99
815.828
815.666
815.504
815.342
815.18
815.018
814.856
814.693
814.531
814.368
814.206
814.043
813.88
813.717
813.554
813.391
813.228
813.065
812.902
812.739
812.575
812.412
812.248
812.085
811.921
811.757
811.593
811.429
811.265
811.101
810.937
810.773
810.608
810.444
810.279
810.115
809.95
809.786
809.621
809.456
809.291
809.126
808.961
808.795
808.63
808.465
808.299
808.134
807.968
807.803
807.637
807.471
807.305
807.139
806.973
806.807
806.641
806.474
806.308
806.141
805.975
805.808
805.642
805.475
805.308
805.141
804.974
804.807
804.64
804.472
804.305
804.137
803.97
803.802
803.635
803.467
803.299
803.131
802.963
802.795
802.627
802.458
802.29
802.122
801.953
801.784
801.616
801.447
801.278
801.109
800.94
800.771
800.602
800.433
800.263
800.094
799.924
799.755
799.585
799.415
799.245
799.075
798.905
798.735
798.565
798.395
798.224
798.054
797.884
797.713
797.542
797.371
797.201
797.03
796.859
796.687
796.516
796.345
796.174
796.002
795.83
795.659
795.487
795.315
795.143
794.971
794.799
794.627
794.455
794.283
794.11
793.938
793.765
793.592
793.42
793.247
793.074
792.901
792.728
792.554
792.381
792.208
792.034
791.861
791.687
791.513
791.34
791.166
790.992
790.818
790.643
790.469
790.295
790.12
788.623
789.771
789.596
789.422
789.247
789.072
788.897
788.722
788.546
788.371
788.196
788.02
787.844
787.669
787.493
787.317
787.141
786.965
786.789
786.613
786.436
786.26
786.083
785.907
785.73
785.553
785.376
785.199
785.022
784.845
784.668
784.49
784.313
784.136
783.958
783.78
783.602
783.424
783.246
783.068
782.89
782.712
782.534
782.355
782.177
781.998
781.819
781.64
781.461
781.282
781.103
780.924
780.745
780.565
780.386
780.206
780.027
779.847
779.667
779.487
779.307
779.127
778.946
778.766
778.586
778.405
778.224
778.044
777.863
777.682
777.501
777.32
777.139
776.957
776.776
776.594
776.413
776.231
776.049
775.867
775.685
775.503
775.321
775.139
774.956
774.774
774.591
774.409
774.226
774.043
773.86
773.677
773.494
773.31
773.127
772.943
772.76
772.576
772.392
772.209
772.025
771.84
771.656
771.472
771.288
771.103
770.919
770.734
770.549
770.364
770.179
769.994
769.809
769.624
769.438
769.253
769.067
768.882
768.696
768.51
768.324
768.138
767.951
767.765
767.579
767.392
767.206
767.019
766.832
766.645
766.458
766.271
766.084
765.896
765.709
765.521
765.334
765.146
764.958
764.77
764.582
764.394
764.206
764.017
763.829
763.64
763.451
763.262
763.074
762.885
762.695
762.506
762.317
762.127
761.938
761.748
761.558
761.368
761.178
760.988
760.798
760.608
760.417
760.227
760.036
759.845
759.655
759.464
759.273
759.081
758.89
758.699
758.507
758.316
758.124
757.932
757.74
757.548
757.356
757.163
756.971
756.779
756.586
756.393
756.2
756.007
755.814
755.621
755.428
755.235
755.041
754.847
754.654
754.46
754.266
754.072
753.878
753.683
753.489
753.294
753.1
752.905
752.71
752.515
752.32
752.125
751.93
751.734
751.539
751.343
751.147
750.951
750.755
750.559
750.363
750.166
749.97
749.773
749.577
749.38
749.183
748.986
748.789
748.591
748.394
748.197
747.999
747.801
747.603
747.405
747.207
747.009
746.811
746.612
746.414
746.215
746.016
745.817
745.618
745.419
745.219
745.02
744.821
744.621
744.421
744.221
744.021
743.821
743.621
743.42
743.22
743.019
742.818
742.618
742.417
742.215
742.014
741.813
741.611
741.41
741.208
741.006
740.804
740.602
740.4
740.197
739.995
739.792
739.59
739.387
739.184
738.981
738.777
738.574
738.371
738.167
737.963
737.759
737.555
737.351
737.147
736.943
736.738
736.534
736.329
736.124
735.919
735.714
735.509
735.303
735.098
734.892
734.686
734.48
734.274
734.068
733.862
733.655
733.449
733.242
733.035
732.828
732.621
732.414
732.207
731.999
731.792
731.584
731.376
731.168
730.96
730.752
730.543
730.335
730.126
729.917
729.709
729.499
729.29
729.081
728.871
728.662
728.452
728.242
728.032
727.822
727.612
727.401
727.191
726.98
726.769
726.558
726.347
726.136
725.925
725.713
725.502
725.29
725.078
724.866
724.654
724.441
724.229
724.016
723.803
723.59
723.377
723.164
722.951
722.738
722.524
722.31
722.096
721.882
721.668
721.454
721.239
721.025
720.81
720.595
720.38
720.165
719.95
719.734
719.519
719.303
719.087
718.871
718.655
718.438
718.222
718.005
717.789
717.572
717.355
717.138
716.92
716.703
716.485
716.267
716.049
715.831
715.613
715.395
715.176
714.957
714.739
714.52
714.301
714.081
713.862
713.642
713.423
713.203
712.983
712.763
712.542
712.322
712.101
711.88
711.659
711.438
711.217
710.996
710.774
710.552
710.331
710.109
709.886
709.664
709.442
709.219
708.996
708.773
708.55
708.327
708.103
707.88
707.656
707.432
707.208
706.984
706.76
706.535
706.31
706.086
705.861
705.635
705.41
705.185
704.959
704.733
704.507
704.281
704.055
703.828
703.602
703.375
703.148
702.921
702.694
702.466
702.239
702.011
701.783
701.555
701.327
701.098
700.87
700.641
700.412
700.183
699.954
699.724
699.495
699.265
699.035
698.805
698.575
698.344
698.114
697.883
697.652
697.421
697.19
696.958
696.727
696.495
696.263
696.031
695.798
695.566
695.333
695.101
694.868
694.634
694.401
694.168
693.934
693.7
693.466
693.232
692.997
692.763
692.528
692.293
692.058
691.823
691.587
691.352
691.116
690.88
690.644
690.407
690.171
689.934
689.697
689.46
689.223
688.985
690.371
688.51
688.272
688.034
687.795
687.557
687.318
687.079
686.84
686.601
686.361
686.122
685.882
685.642
685.402
685.161
684.921
684.68
684.439
684.198
683.956
683.715
683.473
683.231
682.989
682.747
682.504
682.262
682.019
681.776
681.533
681.289
681.045
680.802
680.558
680.313
680.069
679.824
679.579
679.334
679.089
678.844
678.598
678.352
678.106
677.86
677.614
677.367
677.12
676.873
676.626
676.379
676.131
675.883
675.635
675.387
675.139
674.89
674.641
674.392
674.143
673.894
673.644
673.394
673.144
672.894
672.643
672.393
672.142
671.891
671.639
671.388
671.136
670.884
670.632
670.38
670.127
669.874
669.621
669.368
669.115
668.861
668.607
668.353
668.099
667.844
667.589
667.335
667.079
666.824
666.568
666.313
666.057
665.8
665.544
665.287
665.03
664.773
664.516
664.258
664
663.742
663.484
663.226
662.967
662.708
662.449
662.189
661.93
661.67
661.41
661.15
660.889
660.628
660.367
660.106
659.845
659.583
659.321
659.059
658.796
658.534
658.271
658.008
657.745
657.481
657.217
656.953
656.689
656.424
656.16
655.895
655.629
655.364
655.098
654.832
654.566
654.3
654.033
653.766
653.499
653.231
652.964
652.696
652.428
652.159
651.891
651.622
651.353
651.083
650.814
650.544
650.274
650.003
649.732
649.462
649.19
648.919
648.647
648.375
648.103
647.831
647.558
647.285
647.012
646.738
646.465
646.191
645.916
645.642
645.367
645.092
644.817
644.541
644.265
643.989
643.713
643.436
643.159
642.882
642.605
642.327
642.049
641.771
641.492
641.213
640.934
640.655
640.375
640.095
639.815
639.535
639.254
638.973
638.692
638.41
638.128
637.846
637.564
637.281
636.998
636.715
636.431
636.147
635.863
635.579
635.294
635.009
634.724
634.438
634.152
633.866
633.58
633.293
633.006
632.719
632.431
632.143
631.855
631.566
631.277
630.988
630.699
630.409
630.119
629.829
629.538
629.247
628.956
628.664
628.373
628.08
627.788
627.495
627.202
626.909
626.615
626.321
626.027
625.732
625.437
625.142
624.846
624.55
624.254
623.957
623.66
623.363
623.066
622.768
622.47
622.171
621.872
621.573
621.274
620.974
620.674
620.373
620.072
619.771
619.47
619.168
618.866
618.563
618.26
617.957
617.654
617.35
617.046
616.741
616.436
616.131
615.825
615.519
615.213
614.907
614.6
614.292
613.985
613.677
613.368
613.059
612.75
612.441
612.131
611.821
611.51
611.199
610.888
610.576
610.264
609.952
609.639
609.326
609.013
608.699
608.385
608.07
607.755
607.44
607.124
606.808
606.491
606.175
605.857
605.54
605.222
604.903
604.585
604.265
603.946
603.626
603.305
602.985
602.664
602.342
602.02
601.698
601.375
601.052
600.728
600.404
600.08
599.755
599.43
599.105
598.779
598.452
598.125
597.798
597.47
597.142
596.814
596.485
596.156
595.826
595.496
595.165
594.834
594.503
594.171
593.838
593.506
593.172
592.839
592.505
592.17
591.835
591.5
591.164
590.828
590.491
590.154
589.816
589.478
589.14
588.801
588.461
588.121
587.781
587.44
587.099
586.757
586.415
586.072
585.729
585.385
585.041
584.696
584.351
584.006
583.66
583.313
582.966
582.618
582.27
581.922
581.573
581.224
580.874
580.523
580.172
579.821
579.469
579.116
578.763
578.41
578.056
577.701
577.346
576.99
576.634
576.278
575.921
575.563
575.205
574.846
574.487
574.127
573.767
573.406
573.044
572.682
572.32
571.957
571.593
571.229
570.864
570.499
570.133
569.767
569.4
569.032
568.664
568.296
567.926
567.557
567.186
566.815
566.444
566.071
565.699
565.325
564.952
564.577
564.202
563.826
563.45
563.073
562.695
562.317
561.939
561.559
561.179
560.799
560.417
560.035
559.653
559.27
558.886
558.502
558.117
557.731
557.344
556.957
556.57
556.182
555.793
555.403
555.013
554.622
554.23
553.838
553.445
553.051
552.657
552.262
551.866
551.469
551.072
550.674
550.276
549.877
549.477
549.076
548.674
548.272
547.87
547.466
547.062
546.657
546.251
545.844
545.437
545.029
544.62
544.211
543.8
543.389
542.977
542.565
542.151
541.737
541.322
540.906
540.49
540.073
539.654
539.235
538.816
538.395
537.974
537.551
537.128
536.704
536.28
535.854
535.428
535
534.572
535.859
533.713
533.283
532.851
532.419
531.985
531.551
531.116
530.68
530.243
529.805
529.366
528.927
528.486
528.044
527.602
527.158
526.714
526.269
525.823
525.375
524.927
524.478
524.028
523.577
523.124
522.671
522.217
521.762
521.306
520.849
520.39
519.931
519.471
519.01
518.547
518.084
517.619
517.154
516.687
516.219
515.75
515.28
514.809
514.337
513.864
513.389
512.914
512.437
511.959
511.48
513.362
510.519
510.036
509.552
509.067
508.581
508.094
507.605
507.116
506.625
506.132
505.639
505.144
504.648
504.151
503.652
503.152
502.651
502.148
501.644
501.139
500.632
500.124
499.615
499.104
498.592
498.079
497.564
497.048
496.53
496.011
495.49
494.968
494.445
493.92
493.393
492.865
492.336
491.805
491.272
490.738
490.202
489.665
489.126
488.585
488.043
487.5
486.954
486.407
487.974
485.308
484.756
484.202
483.647
483.09
482.531
481.97
481.408
480.843
480.277
479.709
479.139
478.568
477.994
477.419
476.842
476.262
475.681
475.098
474.513
473.926
473.337
472.746
472.153
471.557
470.96
470.36
469.759
469.155
468.549
467.941
467.331
466.719
466.104
465.487
464.868
464.246
463.622
462.996
462.367
461.736
461.103
460.467
459.828
459.187
458.544
457.898
457.249
456.598
455.944
458.141
454.628
453.966
453.302
452.634
451.964
451.291
450.615
449.936
449.254
448.569
447.882
447.191
446.497
445.8
445.1
444.397
443.69
442.98
442.267
441.551
440.831
440.108
439.382
438.652
437.918
437.181
436.44
435.696
434.948
434.196
433.44
432.681
431.918
431.15
430.379
429.604
428.825
428.041
427.253
426.461
425.665
424.865
424.06
423.25
422.436
421.617
420.794
419.966
421.868
418.296
417.453
416.606
415.753
414.896
414.033
413.165
412.292
411.413
410.528
409.639
408.743
407.842
406.935
406.022
405.103
404.178
403.247
402.31
401.367
400.417
399.46
398.497
397.528
396.551
395.568
394.578
393.581
392.576
391.565
390.546
389.519
388.485
387.444
386.394
385.337
384.272
383.199
382.118
381.029
379.931
378.825
377.71
376.587
375.455
374.314
373.164
372.006
370.838
372.943
368.476
367.281
366.077
364.863
363.64
362.408
361.167
359.916
358.656
357.387
356.108
354.82
353.523
352.217
350.902
349.578
348.246
346.905
345.556
344.199
342.834
341.461
340.082
338.695
337.302
335.903
334.498
333.088
331.673
330.254
328.832
327.406
325.978
324.548
323.117
321.686
320.255
318.824
317.396
315.969
314.546
313.127
311.712
310.303
308.9
307.504
306.115
304.734
303.362
305.753
300.647
299.305
297.974
296.655
295.347
294.052
292.77
291.501
290.246
289.004
287.777
286.563
285.364
284.179
283.009
281.853
280.712
279.585
278.474
277.376
276.294
275.225
274.171
273.132
272.106
271.095
270.097
269.113
268.142
267.185
266.241
265.309
264.391
263.485
262.591
261.71
260.84
259.983
259.136
258.301
257.478
256.665
255.863
255.071
254.29
253.518
252.757
252.006
251.264
252.186
249.808
249.093
248.388
247.691
247.003
246.323
245.651
244.987
244.331
243.683
243.042
242.409
241.783
241.164
240.552
239.947
239.348
238.757
238.171
237.592
237.02
236.453
235.893
235.338
234.789
234.246
233.708
233.176
232.649
232.128
231.612
231.1
230.594
230.093
229.597
229.105
228.618
228.135
227.658
227.184
226.715
226.25
225.79
225.333
224.881
224.432
223.988
223.547
223.111
223.623
222.248
221.823
221.401
220.982
220.567
220.155
219.747
219.342
218.941
218.542
218.147
217.755
217.366
216.98
216.597
216.217
215.839
215.465
215.093
214.725
214.359
213.995
213.635
213.277
212.921
212.569
212.218
211.87
211.525
211.182
210.842
210.503
210.167
209.834
209.503
209.174
208.847
208.522
208.199
207.879
207.561
207.245
206.93
206.618
206.308
206
205.694
205.389
205.087
204.787
205.421
204.191
203.896
203.603
203.312
203.022
202.734
202.448
202.163
201.88
201.599
201.32
201.042
200.765
200.491
200.218
199.946
199.676
199.407
199.14
198.875
198.61
198.348
198.087
197.827
197.568
197.311
197.056
196.801
196.549
196.297
196.047
195.798
195.55
195.304
195.059
194.815
194.572
194.331
194.091
193.852
193.614
193.377
193.142
192.908
192.675
192.443
192.212
191.982
192.121
191.526
191.3
191.075
190.851
190.627
190.405
190.184
189.964
189.745
189.527
189.31
189.094
188.879
188.665
188.452
188.24
188.029
187.819
187.61
187.401
187.194
186.987
186.782
186.577
186.373
186.17
185.968
185.767
185.567
185.367
185.168
184.971
184.774
184.578
184.382
184.188
183.994
183.801
183.609
183.418
183.227
183.037
182.848
182.66
182.473
182.286
182.1
181.915
181.73
181.547
181.364
181.181
181
180.819
180.638
180.459
180.28
180.102
179.924
179.748
179.572
179.396
179.221
179.047
178.874
178.701
178.529
178.357
178.186
178.016
177.846
177.677
177.509
177.341
177.174
177.007
176.841
176.676
176.511
176.346
176.183
176.02
175.857
175.695
175.534
175.373
175.213
175.053
174.894
174.735
174.577
174.42
174.263
174.106
173.95
173.795
173.64
173.486
173.332
173.178
173.026
172.873
172.722
172.57
172.419
172.269
172.119
171.97
171.821
171.673
171.525
171.377
171.23
171.084
170.938
170.792
170.647
170.503
170.359
170.215
170.072
169.929
169.786
169.644
169.503
169.362
169.221
169.081
168.941
168.802
168.663
168.525
168.386
168.249
168.112
167.975
167.838
167.702
167.567
167.431
167.297
167.162
167.028
166.895
166.761
166.629
166.496
166.364
166.232
166.101
165.97
165.84
165.709
165.58
165.45
165.321
165.192
165.064
164.936
164.809
164.681
164.554
164.428
164.302
164.176
164.05
163.925
163.8
163.676
163.552
163.428
163.305
163.181
163.059
162.936
162.814
162.692
162.571
162.45
162.329
162.209
162.088
161.969
161.849
161.73
161.611
161.492
161.374
161.256
161.139
161.021
160.904
160.787
160.671
160.555
160.439
160.324
160.208
160.093
159.979
159.864
159.75
159.637
159.523
159.41
159.297
159.184
159.072
158.96
158.848
158.737
158.625
158.514
158.404
158.293
158.183
158.073
157.964
157.854
157.745
157.637
157.528
157.42
157.312
157.204
157.096
156.989
156.882
156.776
156.669
156.563
156.457
156.351
156.246
156.14
156.036
155.931
155.826
155.722
155.618
155.514
155.411
155.308
155.205
155.102
154.999
154.897
154.795
154.693
154.591
154.49
154.389
154.288
154.187
154.087
153.987
153.887
153.787
153.687
153.588
153.489
153.39
153.291
153.193
153.095
152.997
152.899
152.801
152.704
152.607
152.51
152.413
152.316
152.22
152.124
152.028
151.932
151.837
151.742
151.647
151.552
151.457
151.363
151.268
151.174
151.08
150.987
150.893
150.8
150.707
150.614
150.521
150.429
150.337
150.245
150.153
150.061
149.969
149.878
149.787
149.696
149.605
149.515
149.424
149.334
149.244
149.154
149.065
148.975
148.886
148.797
148.708
148.619
148.531
148.442
148.354
148.266
148.178
148.09
148.003
147.916
147.828
147.741
147.655
147.568
147.482
147.395
147.309
147.223
147.137
147.052
146.966
146.881
146.796
146.711
146.626
146.542
146.457
146.373
146.289
146.205
146.121
146.037
145.954
145.871
145.787
145.704
145.621
145.539
145.456
145.374
145.292
145.21
145.128
145.046
144.964
144.883
144.802
144.72
144.639
144.559
144.478
144.397
144.317
144.237
144.157
144.077
143.997
143.917
143.838
143.758
143.679
143.6
143.521
143.442
143.364
143.285
143.207
143.128
143.05
142.972
142.895
142.817
142.739
142.662
142.585
142.508
142.431
142.354
142.277
142.201
142.124
142.048
141.972
141.896
141.82
141.744
141.669
141.593
141.518
141.443
141.367
141.292
141.218
141.143
141.068
140.994
140.92
140.845
140.771
140.697
140.624
140.55
140.476
140.403
140.33
140.257
140.183
140.111
140.038
139.965
139.893
139.82
139.748
139.676
139.604
139.532
139.46
139.388
139.316
139.245
139.174
139.102
139.031
138.96
138.889
138.819
138.748
138.678
138.607
138.537
138.467
138.397
138.327
138.257
138.187
138.118
138.048
137.979
137.909
137.84
137.771
137.702
137.633
137.565
137.496
137.428
137.359
137.291
137.223
137.155
137.087
137.019
136.951
136.884
136.816
136.749
136.682
136.614
136.547
136.48
136.413
136.347
136.28
136.213
136.147
136.081
136.014
135.948
135.882
135.816
135.751
135.685
135.619
135.554
135.488
135.423
135.358
135.293
135.228
135.163
135.098
135.033
134.968
134.904
134.839
134.775
134.711
134.647
134.531
134.519
134.455
134.391
134.328
134.264
134.201
134.137
134.074
134.011
133.948
133.885
133.822
133.759
133.696
133.634
133.571
133.509
133.446
133.384
133.322
133.26
133.198
133.136
133.074
133.013
132.951
132.89
132.828
132.767
132.706
132.644
132.583
132.522
132.462
132.401
132.34
132.279
132.219
132.158
132.098
132.038
131.978
131.918
131.857
131.798
131.738
131.678
131.618
131.559
131.499
131.44
131.38
131.321
131.262
131.203
131.144
131.085
131.026
130.967
130.909
130.85
130.792
130.733
130.675
130.617
130.559
130.5
130.442
130.385
130.327
130.269
130.211
130.154
130.096
130.039
129.981
129.924
129.867
129.81
129.753
129.696
129.639
129.582
129.525
129.468
129.412
129.355
129.299
129.243
129.186
129.13
129.074
129.018
128.962
128.906
128.85
128.794
128.739
128.683
128.628
128.572
128.517
128.461
128.406
128.351
128.296
128.241
128.186
128.131
128.076
128.022
127.967
127.912
127.858
127.803
127.749
127.695
127.641
127.586
127.532
127.478
127.424
127.371
127.317
127.263
127.209
127.156
127.102
127.049
126.995
126.942
126.889
126.836
126.783
126.73
126.677
126.624
126.571
126.518
126.465
126.413
126.36
126.308
126.255
126.203
126.151
126.099
126.046
125.994
125.942
125.89
125.838
125.787
125.735
125.683
125.631
125.58
125.528
125.477
125.426
125.374
125.323
125.272
125.221
125.17
125.119
125.068
125.017
124.966
124.915
124.865
124.814
124.764
124.713
124.663
124.612
124.562
124.512
124.462
124.411
124.361
124.311
124.262
124.212
124.162
124.112
124.062
124.013
123.963
123.914
123.864
123.815
123.766
123.716
123.667
123.618