/*--------------------------------*- C++ -*----------------------------------*\
| =========                 |                                                 |
| \\      /  F ield         | OpenFOAM: The Open Source CFD Toolbox           |
|  \\    /   O peration     | Version:  2.3.1                                 |
|   \\  /    A nd           | Web:      www.OpenFOAM.org                      |
|    \\/     M anipulation  |                                                 |
\*---------------------------------------------------------------------------*/
FoamFile
{
    version     2.0;
    format      ascii;
    class       volScalarField;
    location    "1e-06";
    object      T;
}
// * * * * * * * * * * * * * * * * * * * * * * * * * * * * * * * * * * * * * //

dimensions      [0 0 0 1 0 0 0];

internalField   nonuniform List<scalar> 
10000
(
64.3484
64.3717
64.3951
64.4185
64.4418
64.4652
64.4886
64.5119
64.5353
64.5587
64.582
64.6054
64.6288
64.6521
64.6755
64.6989
64.7222
64.7456
64.769
64.7923
64.8157
64.8391
64.8625
64.8858
64.9092
64.9326
64.9559
64.9793
65.0027
65.026
65.0494
65.0728
65.0961
65.1195
65.1429
65.1662
65.1896
65.213
65.2363
65.2597
65.2831
65.3064
65.3298
65.3532
65.3765
65.3999
65.4233
65.4466
65.47
65.4934
65.5167
65.5401
65.5635
65.5868
65.6102
65.6336
65.6569
65.6803
65.7037
65.7271
65.7504
65.7738
65.7972
65.8205
65.8439
65.8673
65.8906
65.914
65.9374
65.9607
65.9841
66.0075
66.0308
66.0542
66.0776
66.1009
66.1243
66.1477
66.171
66.1944
66.2178
66.2411
66.2645
66.2879
66.3112
66.3346
66.358
66.3813
66.4047
66.4281
66.4514
66.4748
66.4982
66.5215
66.5449
66.5683
66.5916
66.615
66.6384
66.6617
66.6851
66.7085
66.7319
66.7552
66.7786
66.802
66.8253
66.8487
66.8721
66.8954
66.9188
66.9422
66.9655
66.9889
67.0123
67.0356
67.059
67.0824
67.1057
67.1291
67.1525
67.1758
67.1992
67.2226
67.2459
67.2693
67.2927
67.316
67.3394
67.3628
67.3861
67.4095
67.4329
67.4562
67.4796
67.503
67.5263
67.5497
67.5731
67.5965
67.6198
67.6432
67.6666
67.6899
67.7133
67.7367
67.76
67.7834
67.8068
67.8301
67.8535
67.8769
67.9002
67.9236
67.947
67.9703
67.9937
68.0171
68.0404
68.0638
68.0872
68.1105
68.1339
68.1573
68.1806
68.204
68.2274
68.2507
68.2741
68.2975
68.3208
68.3442
68.3676
68.3909
68.4143
68.4377
68.461
68.4844
68.5078
68.5311
68.5545
68.5779
68.6013
68.6246
68.648
68.6714
68.6947
68.7181
68.7415
68.7648
68.7882
68.8116
68.8349
68.8583
68.8817
68.905
68.9284
68.9518
68.9751
68.9985
69.0219
69.0452
69.0686
69.092
69.1153
69.1387
69.1621
69.1854
69.2088
69.2322
69.2555
69.2789
69.3023
69.3256
69.349
69.3724
69.3957
69.4191
69.4425
69.4659
69.4892
69.5126
69.536
69.5593
69.5827
69.6061
69.6294
69.6528
69.6762
69.6995
69.7229
69.7463
69.7696
69.793
69.8164
69.8397
69.8631
69.8865
69.9098
69.9332
69.9566
69.9799
70.0033
70.0267
70.05
70.0734
70.0968
70.1201
70.1435
70.1669
70.1902
70.2136
70.237
70.2603
70.2837
70.3071
70.3304
70.3538
70.3772
70.4005
70.4239
70.4473
70.4707
70.494
70.5174
70.5408
70.5641
70.5875
70.6109
70.6342
70.6576
70.681
70.7043
70.7277
70.7511
70.7744
70.7978
70.8212
70.8445
70.8679
70.8913
70.9146
70.938
70.9614
70.9847
71.0081
71.0315
71.0548
71.0782
71.1016
71.1249
71.1483
71.1717
71.195
71.2184
71.2418
71.2651
71.2885
71.3119
71.3353
71.3586
71.382
71.4054
71.4287
71.4521
71.4755
71.4988
71.5222
71.5456
71.5689
71.5923
71.6157
71.639
71.6624
71.6858
71.7091
71.7325
71.7559
71.7792
71.8026
71.826
71.8493
71.8727
71.8961
71.9194
71.9428
71.9662
71.9895
72.0129
72.0363
72.0596
72.083
72.1064
72.1297
72.1531
72.1765
72.1998
72.2232
72.2466
72.2699
72.2933
72.3167
72.3401
72.3634
72.3868
72.4102
72.4335
72.4569
72.4803
72.5036
72.527
72.5504
72.5737
72.5971
72.6205
72.6438
72.6672
72.6906
72.7139
72.7373
72.7607
72.784
72.8074
72.8308
72.8541
72.8775
72.9009
72.9242
72.9476
72.971
72.9943
73.0177
73.0411
73.0644
73.0878
73.1112
73.1345
73.1579
73.1813
73.2047
73.228
73.2514
73.2748
73.2981
73.3215
73.3449
73.3682
73.3916
73.415
73.4383
73.4617
73.4851
73.5084
73.5318
73.5552
73.5785
73.6019
73.6253
73.6486
73.672
73.6954
73.7187
73.7421
73.7655
73.7888
73.8122
73.8356
73.8589
73.8823
73.9057
73.929
73.9524
73.9758
73.9991
74.0225
74.0459
74.0692
74.0926
74.116
74.1393
74.1627
74.1861
74.2095
74.2328
74.2562
74.2796
74.3029
74.3263
74.3497
74.373
74.3964
74.4198
74.4431
74.4665
74.4899
74.5132
74.5366
74.56
74.5833
74.6067
74.6301
74.6534
74.6768
74.7002
74.7235
74.7469
74.7703
74.7936
74.817
74.8404
74.8637
74.8871
74.9105
74.9338
74.9572
74.9806
75.0039
75.0273
75.0507
75.074
75.0974
75.1208
75.1442
75.1675
75.1909
75.2143
75.2376
75.261
75.2844
75.3077
75.3311
75.3545
75.3778
75.4012
75.4246
75.4479
75.4713
75.4947
75.518
75.5414
75.5648
75.5881
75.6115
75.6349
75.6582
75.6816
75.705
75.7283
75.7517
75.7751
75.7984
75.8218
75.8452
75.8685
75.8919
75.9153
75.9386
75.962
75.9854
76.068
76.0321
76.0555
76.0789
76.1022
76.1256
76.149
76.1723
76.1957
76.2191
76.2424
76.2658
76.2892
76.3125
76.3359
76.3593
76.3826
76.406
76.4294
76.4527
76.4761
76.4995
76.5228
76.5462
76.5696
76.5929
76.6163
76.6397
76.663
76.6864
76.7098
76.7331
76.7565
76.7799
76.8032
76.8266
76.85
76.8733
76.8967
76.9201
76.9434
76.9668
76.9902
77.0136
77.0369
77.0603
77.0837
77.107
77.1304
77.1538
77.1771
77.2005
77.2239
77.2472
77.2706
77.294
77.3173
77.3407
77.3641
77.3874
77.4108
77.4342
77.4575
77.4809
77.5043
77.5276
77.551
77.5744
77.5977
77.6211
77.6445
77.6678
77.6912
77.7146
77.7379
77.7613
77.7847
77.808
77.8314
77.8548
77.8782
77.9015
77.9249
77.9483
77.9716
77.995
78.0184
78.0417
78.0651
78.0885
78.1118
78.1352
78.1586
78.1819
78.2053
78.2287
78.252
78.2754
78.2988
78.3221
78.3455
78.3689
78.3922
78.4156
78.439
78.4623
78.4857
78.5091
78.5324
78.5558
78.5792
78.6025
78.6259
78.6493
78.6726
78.696
78.7194
78.7427
78.7661
78.7895
78.8128
78.8362
78.8596
78.883
78.9063
78.9297
78.9531
78.9764
78.9998
79.0232
79.0465
79.0699
79.0933
79.1166
79.14
79.1634
79.1867
79.2101
79.2335
79.2568
79.2802
79.3036
79.3269
79.3503
79.3737
79.397
79.4204
79.4438
79.4671
79.4905
79.5139
79.5372
79.5606
79.584
79.6073
79.6307
79.6541
79.6774
79.7008
79.7242
79.7476
79.7709
79.7943
79.8177
79.841
79.8644
79.8878
79.9111
79.9345
79.9579
79.9812
80.0046
80.028
80.0513
80.0747
80.0981
80.1214
80.1448
80.1682
80.1915
80.2149
80.2383
80.2616
80.285
80.3084
80.3317
80.3551
80.3785
80.4018
80.4252
80.4486
80.4719
80.4953
80.5187
80.542
80.5654
80.5888
80.6121
80.6355
80.6589
80.6822
80.7056
80.729
80.7524
80.7757
80.7991
80.8225
80.8458
80.8692
80.8926
80.9159
80.9393
80.9627
80.986
81.0094
81.0328
81.0561
81.0795
81.1029
81.1262
81.1496
81.173
81.1963
81.2197
81.2431
81.2664
81.2898
81.3132
81.3365
81.3599
81.3833
81.4066
81.43
81.4534
81.4767
81.5001
81.5235
81.5468
81.5702
81.5936
81.617
81.6403
81.6637
81.6871
81.7104
81.7338
81.7572
81.7805
81.8039
81.8273
81.8506
81.874
81.8974
81.9207
81.9441
81.9675
81.9908
82.0142
82.0376
82.0609
82.0843
82.1077
82.131
82.1544
82.1778
82.2011
82.2245
82.2479
82.2712
82.2946
82.318
82.3413
82.3647
82.3881
82.4114
82.4348
82.4582
82.4815
82.5049
82.5283
82.5516
82.575
82.5984
82.6218
82.6451
82.6685
82.6919
82.7152
82.7386
82.762
82.7853
82.8087
82.8321
82.8554
82.8788
82.9022
82.9255
82.9489
82.9723
82.9956
83.019
83.0424
83.0657
83.0891
83.1125
83.1358
83.1592
83.1826
83.2059
83.2293
83.2527
83.276
83.2994
83.3228
83.3461
83.3695
83.3929
83.4162
83.4396
83.463
83.4864
83.5097
83.5331
83.5565
83.5798
83.6032
83.6266
83.6499
83.6733
83.6967
83.72
83.7434
83.7668
83.7901
83.8135
83.8369
83.8602
83.8836
83.907
83.9303
83.9537
83.9771
84.0004
84.0238
84.0472
84.0705
84.0939
84.1173
84.1406
84.164
84.1874
84.2107
84.2341
84.2575
84.2808
84.3042
84.3276
84.3509
84.3743
84.3977
84.421
84.4444
84.4678
84.4912
84.5145
84.5379
84.5613
84.5846
84.608
84.6314
84.6547
84.6781
84.7015
84.7248
84.7482
84.7716
84.7949
84.8183
84.8417
84.865
84.8884
84.9118
84.9351
84.9585
84.9819
85.0052
85.0286
85.052
85.0753
85.0987
85.1221
85.1454
85.1688
85.1922
85.2155
85.2389
85.2623
85.2856
85.309
85.3324
85.3558
85.3791
85.4025
85.4259
85.4492
85.4726
85.496
85.5193
85.5427
85.5661
85.5894
85.6128
85.6362
85.6595
85.6829
85.7063
85.7296
85.753
85.7764
85.7997
85.8231
85.8465
85.8698
85.8932
85.9166
85.9399
85.9633
85.9867
86.01
86.0334
86.0568
86.0801
86.1035
86.1269
86.1502
86.1736
86.197
86.2203
86.2437
86.2671
86.2905
86.3138
86.3372
86.3606
86.3839
86.4073
86.4307
86.454
86.4774
86.5008
86.5241
86.5475
86.5709
86.5942
86.6176
86.641
86.6643
86.6877
86.7111
86.7344
86.7578
86.7812
86.8045
86.8279
86.8513
86.8746
86.898
86.9214
86.9447
86.9681
86.9915
87.0148
87.0382
87.0616
87.0849
87.1083
87.1317
87.155
87.1784
87.2018
87.2251
87.2485
87.2719
87.2953
87.3186
87.342
87.3654
87.3887
87.4121
87.4355
87.4588
87.4822
87.5056
87.5289
87.5523
87.5757
87.599
87.6224
87.6458
87.6691
87.81
87.7159
87.7392
87.7626
87.786
87.8093
87.8327
87.8561
87.8794
87.9028
87.9262
87.9495
87.9729
87.9963
88.0196
88.043
88.0664
88.0897
88.1131
88.1365
88.1599
88.1832
88.2066
88.23
88.2533
88.2767
88.3001
88.3234
88.3468
88.3702
88.3935
88.4169
88.4403
88.4636
88.487
88.5104
88.5337
88.5571
88.5805
88.6038
88.6272
88.6506
88.6739
88.6973
88.7207
88.744
88.7674
88.7908
88.8141
88.8375
88.8609
88.8842
88.9076
88.931
88.9543
88.9777
89.0011
89.0244
89.0478
89.0712
89.0945
89.1179
89.1413
89.1647
89.188
89.2114
89.2348
89.2581
89.2815
89.3049
89.3282
89.3516
89.375
89.3983
89.4217
89.4451
89.4684
89.4918
89.5152
89.5385
89.5619
89.5853
89.6086
89.632
89.6554
89.6787
89.7021
89.7255
89.7488
89.7722
89.7956
89.8189
89.8423
89.8657
89.889
89.9124
89.9358
89.9591
89.9825
90.0059
90.0293
90.0526
90.076
90.0994
90.1227
90.1461
90.1695
90.1928
90.2162
90.2396
90.2629
90.2863
90.3097
90.333
90.3564
90.3798
90.4031
90.4265
90.4499
90.4732
90.4966
90.52
90.5433
90.5667
90.5901
90.6134
90.6368
90.6602
90.6835
90.7069
90.7303
90.7536
90.777
90.8004
90.8237
90.8471
90.8705
90.8938
90.9172
90.9406
90.9639
90.9873
91.0107
91.0341
91.0574
91.0808
91.1042
91.1275
91.1509
91.1743
91.1976
91.221
91.2444
91.2677
91.2911
91.3145
91.3378
91.3612
91.3846
91.4079
91.4313
91.4547
91.478
91.5014
91.5248
91.5481
91.5715
91.5949
91.6182
91.6416
91.665
91.6883
91.7117
91.7351
91.7584
91.7818
91.8052
91.8285
91.8519
91.8753
91.8987
91.922
91.9454
91.9688
91.9921
92.0155
92.0389
92.0622
92.0856
92.109
92.1323
92.1557
92.1791
92.2024
92.2258
92.2492
92.2725
92.2959
92.3193
92.3426
92.366
92.3894
92.4127
92.4361
92.4595
92.4828
92.5062
92.5296
92.5529
92.5763
92.5997
92.623
92.6464
92.6698
92.6931
92.7165
92.7399
92.7632
92.7866
92.81
92.8333
92.8567
92.8801
92.9035
92.9268
92.9502
92.9736
92.9969
93.0203
93.0437
93.067
93.0904
93.1138
93.1371
93.1605
93.1839
93.2072
93.2306
93.254
93.2773
93.3007
93.3241
93.3474
93.3708
93.3942
93.4175
93.4409
93.4643
93.4876
93.511
93.5344
93.5577
93.5811
93.6045
93.6278
93.6512
93.6746
93.6979
93.7213
93.7447
93.7681
93.7914
93.8148
93.8382
93.8615
93.8849
93.9083
93.9316
93.955
93.9784
94.0017
94.0251
94.0485
94.0718
94.0952
94.1186
94.1419
94.1653
94.1887
94.212
94.2354
94.2588
94.2821
94.3055
94.3289
94.3522
94.3756
94.399
94.4223
94.4457
94.4691
94.4924
94.5158
94.5392
94.5625
94.5859
94.6093
94.6326
94.656
94.6794
94.7027
94.7261
94.7495
94.7729
94.7962
94.8196
94.843
94.8663
94.8897
94.9131
94.9364
94.9598
94.9832
95.0065
95.0299
95.0533
95.0766
95.1
95.1234
95.1467
95.1701
95.1935
95.2168
95.2402
95.2636
95.2869
95.3103
95.3337
95.357
95.3804
95.4038
95.4271
95.4505
95.4739
95.4972
95.5206
95.544
95.5673
95.5907
95.6141
95.6375
95.6608
95.6842
95.7076
95.7309
95.7543
95.7777
95.801
95.8244
95.8478
95.8711
95.8945
95.9179
95.9412
95.9646
95.988
96.0113
96.0347
96.0581
96.0814
96.1048
96.1282
96.1515
96.1749
96.1983
96.2216
96.245
96.2684
96.2917
96.3151
96.3385
96.3618
96.3852
96.4086
96.4319
96.4553
96.4787
96.502
96.5254
96.5488
96.5721
96.5955
96.6189
96.6423
96.6656
96.689
96.7124
96.7357
96.7591
96.7825
96.8058
96.8292
96.8526
96.8759
96.8993
96.9227
96.946
96.9694
96.9928
97.0161
97.0395
97.0629
97.0862
97.1096
97.133
97.1563
97.1797
97.2031
97.2264
97.2498
97.2732
97.2965
97.3199
97.3433
97.3666
97.39
97.4134
97.4367
97.4601
97.4835
97.5069
97.5302
97.5536
97.577
97.6003
97.6237
97.6471
97.6704
97.6938
97.7172
97.7405
97.7639
97.7873
97.8106
97.834
97.8574
97.8807
97.9041
97.9275
97.9508
97.9742
97.9976
98.0209
98.0443
98.0677
98.091
98.1144
98.1378
98.1611
98.1845
98.2079
98.2312
98.2546
98.278
98.3013
98.3247
98.3481
98.3714
98.3948
98.4182
98.4416
98.4649
98.4883
98.5117
98.535
98.5584
98.5818
98.6051
98.6285
98.6519
98.6752
98.6986
98.722
98.7453
98.7687
98.7921
98.8154
98.8388
98.8622
98.8855
98.9089
98.9323
98.9556
98.979
99.0024
99.0257
99.0491
99.0725
99.0958
99.1192
99.1426
99.1659
99.1893
99.2127
99.236
99.2594
99.2828
99.3061
99.3295
99.3529
99.553
99.3996
99.423
99.4464
99.4697
99.4931
99.5165
99.5398
99.5632
99.5866
99.6099
99.6333
99.6567
99.68
99.7034
99.7268
99.7501
99.7735
99.7969
99.8202
99.8436
99.867
99.8903
99.9137
99.9371
99.9604
99.9838
100.007
100.031
100.054
100.077
100.101
100.124
100.147
100.171
100.194
100.217
100.241
100.264
100.288
100.311
100.334
100.358
100.381
100.404
100.428
100.451
100.475
100.498
100.521
100.545
100.568
100.591
100.615
100.638
100.661
100.685
100.708
100.732
100.755
100.778
100.802
100.825
100.848
100.872
100.895
100.919
100.942
100.965
100.989
101.012
101.035
101.059
101.082
101.105
101.129
101.152
101.176
101.199
101.222
101.246
101.269
101.292
101.316
101.339
101.362
101.386
101.409
101.433
101.456
101.479
101.503
101.526
101.549
101.573
101.596
101.62
101.643
101.666
101.69
101.713
101.736
101.76
101.783
101.806
101.83
101.853
101.877
101.9
101.923
101.947
101.97
101.993
102.017
102.04
102.064
102.087
102.11
102.134
102.157
102.18
102.204
102.227
102.25
102.274
102.297
102.321
102.344
102.367
102.391
102.414
102.437
102.461
102.484
102.507
102.531
102.554
102.578
102.601
102.624
102.648
102.671
102.694
102.718
102.741
102.765
102.788
102.811
102.835
102.858
102.881
102.905
102.928
102.951
102.975
102.998
103.022
103.045
103.068
103.092
103.115
103.138
103.162
103.185
103.209
103.232
103.255
103.279
103.302
103.325
103.349
103.372
103.395
103.419
103.442
103.466
103.489
103.512
103.536
103.559
103.582
103.606
103.629
103.653
103.676
103.699
103.723
103.746
103.769
103.793
103.816
103.839
103.863
103.886
103.91
103.933
103.956
103.98
104.003
104.026
104.05
104.073
104.096
104.12
104.143
104.167
104.19
104.213
104.237
104.26
104.283
104.307
104.33
104.354
104.377
104.4
104.424
104.447
104.47
104.494
104.517
104.54
104.564
104.587
104.611
104.634
104.657
104.681
104.704
104.727
104.751
104.774
104.798
104.821
104.844
104.868
104.891
104.914
104.938
104.961
104.984
105.008
105.031
105.055
105.078
105.101
105.125
105.148
105.171
105.195
105.218
105.241
105.265
105.288
105.312
105.335
105.358
105.382
105.405
105.428
105.452
105.475
105.499
105.522
105.545
105.569
105.592
105.615
105.639
105.662
105.685
105.709
105.732
105.756
105.779
105.802
105.826
105.849
105.872
105.896
105.919
105.943
105.966
105.989
106.013
106.036
106.059
106.083
106.106
106.129
106.153
106.176
106.2
106.223
106.246
106.27
106.293
106.316
106.34
106.363
106.386
106.41
106.433
106.457
106.48
106.503
106.527
106.55
106.573
106.597
106.62
106.644
106.667
106.69
106.714
106.737
106.76
106.784
106.807
106.83
106.854
106.877
106.901
106.924
106.947
106.971
106.994
107.017
107.041
107.064
107.088
107.111
107.134
107.158
107.181
107.204
107.228
107.251
107.274
107.298
107.321
107.345
107.368
107.391
107.415
107.438
107.461
107.485
107.508
107.532
107.555
107.578
107.602
107.625
107.648
107.672
107.695
107.718
107.742
107.765
107.789
107.812
107.835
107.859
107.882
107.905
107.929
107.952
107.975
107.999
108.022
108.046
108.069
108.092
108.116
108.139
108.162
108.186
108.209
108.233
108.256
108.279
108.303
108.326
108.349
108.373
108.396
108.419
108.443
108.466
108.49
108.513
108.536
108.56
108.583
108.606
108.63
108.653
108.677
108.7
108.723
108.747
108.77
108.793
108.817
108.84
108.863
108.887
108.91
108.934
108.957
108.98
109.004
109.027
109.05
109.074
109.097
109.12
109.144
109.167
109.191
109.214
109.237
109.261
109.284
109.307
109.331
109.354
109.378
109.401
109.424
109.448
109.471
109.494
109.518
109.541
109.564
109.588
109.611
109.635
109.658
109.681
109.705
109.728
109.751
109.775
109.798
109.822
109.845
109.868
109.892
109.915
109.938
109.962
109.985
110.008
110.032
110.055
110.079
110.102
110.125
110.149
110.172
110.195
110.219
110.242
110.266
110.289
110.312
110.336
110.359
110.382
110.406
110.429
110.452
110.476
110.499
110.523
110.546
110.569
110.593
110.616
110.639
110.663
110.686
110.709
110.733
110.756
110.78
110.803
110.826
110.85
110.873
110.896
110.92
110.943
110.967
110.99
111.013
111.037
110.9
111.083
111.107
111.13
111.153
111.177
111.2
111.224
111.247
111.27
111.294
111.317
111.34
111.364
111.387
111.411
111.434
111.457
111.481
111.504
111.527
111.551
111.574
111.597
111.621
111.644
111.668
111.691
111.714
111.738
111.761
111.784
111.808
111.831
111.854
111.878
111.901
111.925
111.948
111.971
111.995
112.018
112.041
112.065
112.088
112.112
112.135
112.158
112.182
112.205
112.228
112.252
112.275
112.298
112.322
112.345
112.369
112.392
112.415
112.439
112.462
112.485
112.509
112.532
112.556
112.579
112.602
112.626
112.649
112.672
112.696
112.719
112.742
112.766
112.789
112.813
112.836
112.859
112.883
112.906
112.929
112.953
112.976
113
113.023
113.046
113.07
113.093
113.116
113.14
113.163
113.186
113.21
113.233
113.257
113.28
113.303
113.327
113.35
113.373
113.397
113.42
113.443
113.467
113.49
113.514
113.537
113.56
113.584
113.607
113.63
113.654
113.677
113.701
113.724
113.747
113.771
113.794
113.817
113.841
113.864
113.887
113.911
113.934
113.958
113.981
114.004
114.028
114.051
114.074
114.098
114.121
114.145
114.168
114.191
114.215
114.238
114.261
114.285
114.308
114.331
114.355
114.378
114.402
114.425
114.448
114.472
114.495
114.518
114.542
114.565
114.588
114.612
114.635
114.659
114.682
114.705
114.729
114.752
114.775
114.799
114.822
114.846
114.869
114.892
114.916
114.939
114.962
114.986
115.009
115.032
115.056
115.079
115.103
115.126
115.149
115.173
115.196
115.219
115.243
115.266
115.29
115.313
115.336
115.36
115.383
115.406
115.43
115.453
115.476
115.5
115.523
115.547
115.57
115.593
115.617
115.64
115.663
115.687
115.71
115.734
115.757
115.78
115.804
115.827
115.85
115.874
115.897
115.92
115.944
115.967
115.991
116.014
116.037
116.061
116.084
116.107
116.131
116.154
116.177
116.201
116.224
116.248
116.271
116.294
116.318
116.341
116.364
116.388
116.411
116.435
116.458
116.481
116.505
116.528
116.551
116.575
116.598
116.621
116.645
116.668
116.692
116.715
116.738
116.762
116.785
116.808
116.832
116.855
116.879
116.902
116.925
116.949
116.972
116.995
117.019
117.042
117.065
117.089
117.112
117.136
117.159
117.182
117.206
117.229
117.252
117.276
117.299
117.322
117.346
117.369
117.393
117.416
117.439
117.463
117.486
117.509
117.533
117.556
117.58
117.603
117.626
117.65
117.673
117.696
117.72
117.743
117.766
117.79
117.813
117.837
117.86
117.883
117.907
117.93
117.953
117.977
118
118.024
118.047
118.07
118.094
118.117
118.14
118.164
118.187
118.21
118.234
118.257
118.281
118.304
118.327
118.351
118.374
118.397
118.421
118.444
118.467
118.491
118.514
118.538
118.561
118.584
118.608
118.631
118.654
118.678
118.701
118.725
118.748
118.771
118.795
118.818
118.841
118.865
118.888
118.911
118.935
118.958
118.982
119.005
119.028
119.052
119.075
119.098
119.122
119.145
119.169
119.192
119.215
119.239
119.262
119.285
119.309
119.332
119.355
119.379
119.402
119.426
119.449
119.472
119.496
119.519
119.542
119.566
119.589
119.613
119.636
119.659
119.683
119.706
119.729
119.753
119.776
119.799
119.823
119.846
119.87
119.893
119.916
119.94
119.963
119.986
120.01
120.033
120.056
120.08
120.103
120.127
120.15
120.173
120.197
120.22
120.243
120.267
120.29
120.314
120.337
120.36
120.384
120.407
120.43
120.454
120.477
120.5
120.524
120.547
120.571
120.594
120.617
120.641
120.664
120.687
120.711
120.734
120.758
120.781
120.804
120.828
120.851
120.874
120.898
120.921
120.944
120.968
120.991
121.015
121.038
121.061
121.085
121.108
121.131
121.155
121.178
121.201
121.225
121.248
121.272
121.295
121.318
121.342
121.365
121.388
121.412
121.435
121.459
121.482
121.505
121.529
121.552
121.575
121.599
121.622
121.645
121.669
121.692
121.716
121.739
121.762
121.786
121.809
121.832
121.856
121.879
121.903
121.926
121.949
121.973
121.996
122.019
122.043
122.066
122.089
122.113
122.136
122.16
122.183
122.206
122.23
122.253
122.276
122.3
122.323
122.347
122.37
122.393
122.417
122.44
122.463
122.487
122.51
122.533
122.557
122.58
122.604
122.627
122.65
122.674
122.697
122.72
122.65
122.767
122.79
122.814
122.837
122.861
122.884
122.907
122.931
122.954
122.977
123.001
123.024
123.048
123.071
123.094
123.118
123.141
123.164
123.188
123.211
123.234
123.258
123.281
123.305
123.328
123.351
123.375
123.398
123.421
123.445
123.468
123.492
123.515
123.538
123.562
123.585
123.608
123.632
123.655
123.678
123.702
123.725
123.749
123.772
123.795
123.819
123.842
123.865
123.889
123.912
123.82
123.959
123.982
124.006
124.029
124.052
124.076
124.099
124.122
124.146
124.169
124.193
124.216
124.239
124.263
124.286
124.309
124.333
124.356
124.379
124.403
124.426
124.45
124.473
124.496
124.52
124.543
124.566
124.59
124.613
124.637
124.66
124.683
124.707
124.73
124.753
124.777
124.8
124.823
124.847
124.87
124.894
124.917
124.94
124.964
124.987
125.01
125.034
125.057
124.99
125.104
125.127
125.151
125.174
125.197
125.221
125.244
125.267
125.291
125.314
125.338
125.361
125.384
125.408
125.431
125.454
125.478
125.501
125.524
125.548
125.571
125.595
125.618
125.641
125.665
125.688
125.711
125.735
125.758
125.782
125.805
125.828
125.852
125.875
125.898
125.922
125.945
125.968
125.992
126.015
126.039
126.062
126.085
126.109
126.132
126.155
126.179
126.202
126.226
126.249
126.17
126.296
126.319
126.342
126.366
126.389
126.412
126.436
126.459
126.483
126.506
126.529
126.553
126.576
126.599
126.623
126.646
126.669
126.693
126.716
126.74
126.763
126.786
126.81
126.833
126.856
126.88
126.903
126.927
126.95
126.973
126.997
127.02
127.043
127.067
127.09
127.113
127.137
127.16
127.184
127.207
127.23
127.254
127.277
127.3
127.324
127.347
127.371
127.394
127.34
127.441
127.464
127.487
127.511
127.534
127.557
127.581
127.604
127.628
127.651
127.674
127.698
127.721
127.744
127.768
127.791
127.814
127.838
127.861
127.885
127.908
127.931
127.955
127.978
128.001
128.025
128.048
128.072
128.095
128.118
128.142
128.165
128.188
128.212
128.235
128.258
128.282
128.305
128.329
128.352
128.375
128.399
128.422
128.445
128.469
128.492
128.516
128.539
128.562
128.52
128.609
128.632
128.656
128.679
128.702
128.726
128.749
128.773
128.796
128.819
128.843
128.866
128.889
128.913
128.936
128.96
128.983
129.006
129.03
129.053
129.076
129.1
129.123
129.146
129.17
129.193
129.217
129.24
129.263
129.287
129.31
129.333
129.357
129.38
129.403
129.427
129.45
129.474
129.497
129.52
129.544
129.567
129.59
129.614
129.637
129.661
129.684
129.707
129.731
129.69
129.777
129.801
129.824
129.847
129.871
129.894
129.918
129.941
129.964
129.988
130.011
130.034
130.058
130.081
130.105
130.128
130.151
130.175
130.198
130.221
130.245
130.268
130.291
130.315
130.338
130.362
130.385
130.408
130.432
130.455
130.478
130.502
130.525
130.548
130.572
130.595
130.619
130.642
130.665
130.689
130.712
130.735
130.759
130.782
130.806
130.829
130.852
130.876
130.899
130.87
130.946
130.969
130.992
131.016
131.039
131.063
131.086
131.109
131.133
131.156
131.179
131.203
131.226
131.25
131.273
131.296
131.32
131.343
131.366
131.39
131.413
131.436
131.46
131.483
131.507
131.53
131.553
131.577
131.6
131.623
131.647
131.67
131.694
131.717
131.74
131.764
131.787
131.81
131.834
131.857
131.88
131.904
131.927
131.951
131.974
131.997
132.021
132.044
132.067
132.04
132.114
132.137
132.161
132.184
132.208
132.231
132.254
132.278
132.301
132.324
132.348
132.371
132.395
132.418
132.441
132.465
132.488
132.511
132.535
132.558
132.581
132.605
132.628
132.652
132.675
132.698
132.722
132.745
132.768
132.792
132.815
132.839
132.862
132.885
132.909
132.932
132.955
132.979
133.002
133.025
133.049
133.072
133.096
133.119
133.142
133.166
133.189
133.212
133.236
133.259
133.21
133.306
133.329
133.353
133.376
133.399
133.423
133.446
133.469
133.493
133.516
133.54
133.563
133.586
133.61
133.633
133.656
133.68
133.703
133.726
133.75
133.773
133.797
133.82
133.843
133.867
133.89
133.913
133.937
133.96
133.984
134.007
134.03
134.054
134.077
134.1
134.124
134.147
134.17
134.194
134.217
134.241
134.264
134.287
134.311
134.334
134.357
134.381
134.404
134.39
134.451
134.474
134.498
134.521
134.544
134.568
134.591
134.614
134.638
134.661
134.685
134.708
134.731
134.755
134.778
134.801
134.825
134.848
134.871
134.895
134.918
134.942
134.965
134.988
135.012
135.035
135.058
135.082
135.105
135.129
135.152
135.175
135.199
135.222
135.245
135.269
135.292
135.315
135.339
135.362
135.386
135.409
135.432
135.456
135.479
135.502
135.526
135.549
135.573
135.596
135.619
135.643
135.666
135.689
135.713
135.736
135.759
135.783
135.806
135.83
135.853
135.876
135.9
135.923
135.946
135.97
135.993
136.016
136.04
136.063
136.087
136.11
136.133
136.157
136.18
136.203
136.227
136.25
136.274
136.297
136.32
136.344
136.367
136.39
136.414
136.437
136.46
136.484
136.507
136.531
136.554
136.577
136.601
136.624
136.647
136.671
136.694
136.718
136.741
136.764
136.788
136.811
136.834
136.858
136.881
136.904
136.928
136.951
136.975
136.998
137.021
137.045
137.068
137.091
137.115
137.138
137.161
137.185
137.208
137.232
137.255
137.278
137.302
137.325
137.348
137.372
137.395
137.419
137.442
137.465
137.489
137.512
137.535
137.559
137.582
137.605
137.629
137.652
137.676
137.699
137.722
137.746
137.769
137.792
137.816
137.839
137.863
137.886
137.909
137.933
137.956
137.979
138.003
138.026
138.049
138.073
138.096
138.12
138.143
138.166
138.19
138.213
138.236
138.26
138.283
138.307
138.33
138.353
138.377
138.4
138.423
138.447
138.47
138.493
138.517
138.54
138.564
138.587
138.61
138.634
138.657
138.68
138.704
138.727
138.75
138.774
138.797
138.821
138.844
138.867
138.891
138.914
138.937
138.961
138.984
139.008
139.031
139.054
139.078
139.101
139.124
139.148
139.171
139.194
139.218
139.241
139.265
139.288
139.311
139.335
139.358
139.381
139.405
139.428
139.452
139.475
139.498
139.522
139.545
139.568
139.592
139.615
139.638
139.662
139.685
139.709
139.732
139.755
139.779
139.802
139.825
139.849
139.872
139.895
139.919
139.942
139.966
139.989
140.012
140.036
140.059
140.082
140.106
140.129
140.153
140.176
140.199
140.223
140.246
140.269
140.293
140.316
140.339
140.363
140.386
140.41
140.433
140.456
140.48
140.503
140.526
140.55
140.573
140.597
140.62
140.643
140.667
140.69
140.713
140.737
140.76
140.783
140.807
140.83
140.854
140.877
140.9
140.924
140.947
140.97
140.994
141.017
141.041
141.064
141.087
141.111
141.134
141.157
141.181
141.204
141.227
141.251
141.274
141.298
141.321
141.344
141.368
141.391
141.414
141.438
141.461
141.484
141.508
141.531
141.555
141.578
141.601
141.625
141.648
141.671
141.695
141.718
141.742
141.765
141.788
141.812
141.835
141.858
141.882
141.905
141.928
141.952
141.975
141.999
142.022
142.045
142.069
142.092
142.115
142.139
142.162
142.186
142.209
142.232
142.256
142.279
142.302
142.326
142.349
142.372
142.396
142.419
142.443
142.466
142.489
142.513
142.536
142.559
142.583
142.606
142.629
142.653
142.676
142.7
142.723
142.746
142.77
142.793
142.816
142.84
142.863
142.887
142.91
142.933
142.957
142.98
143.003
143.027
143.05
143.073
143.097
143.12
143.144
143.167
143.19
143.214
143.237
143.26
143.284
143.307
143.331
143.354
143.377
143.401
143.424
143.447
143.471
143.494
143.517
143.541
143.564
143.588
143.611
143.634
143.658
143.681
143.704
143.728
143.751
143.774
143.798
143.821
143.845
143.868
143.891
143.915
143.938
143.961
143.985
144.008
144.032
144.055
144.078
144.102
144.125
144.148
144.172
144.195
144.218
144.242
144.265
144.289
144.312
144.335
144.359
144.382
144.405
144.429
144.452
144.476
144.499
144.522
144.546
144.569
144.592
144.616
144.639
144.662
144.686
144.709
144.733
144.756
144.779
144.803
144.826
144.849
144.873
144.896
144.92
144.943
144.966
144.99
145.013
145.036
145.06
145.083
145.106
145.13
145.153
145.177
145.2
145.223
145.247
145.27
145.293
145.317
145.34
145.363
145.387
145.41
145.434
145.457
145.48
145.504
145.527
145.55
145.574
145.597
145.621
145.644
145.667
145.691
145.714
145.737
145.761
145.784
145.807
145.831
145.854
145.878
145.901
145.924
145.948
145.971
145.994
146.018
146.041
146.065
146.088
146.13
146.135
146.158
146.181
146.205
146.228
146.251
146.275
146.298
146.322
146.345
146.368
146.392
146.415
146.438
146.462
146.485
146.508
146.532
146.555
146.579
146.602
146.625
146.649
146.672
146.695
146.719
146.742
146.766
146.789
146.812
146.836
146.859
146.882
146.906
146.929
146.952
146.976
146.999
147.023
147.046
147.069
147.093
147.116
147.139
147.163
147.186
147.21
147.233
147.256
147.28
147.303
147.326
147.35
147.373
147.396
147.42
147.443
147.467
147.49
147.513
147.537
147.56
147.583
147.607
147.63
147.654
147.677
147.7
147.724
147.747
147.77
147.794
147.817
147.84
147.864
147.887
147.911
147.934
147.957
147.981
148.004
148.027
148.051
148.074
148.097
148.121
148.144
148.168
148.191
148.214
148.238
148.261
148.284
148.308
148.331
148.355
148.378
148.401
148.425
148.448
148.471
148.495
148.518
148.541
148.565
148.588
148.612
148.635
148.658
148.682
148.705
148.728
148.752
148.775
148.799
148.822
148.845
148.869
148.892
148.915
148.939
148.962
148.985
149.009
149.032
149.056
149.079
149.102
149.126
149.149
149.172
149.196
149.219
149.242
149.266
149.289
149.313
149.336
149.359
149.383
149.406
149.429
149.453
149.476
149.5
149.523
149.546
149.57
149.593
149.616
149.64
149.663
149.686
149.71
149.733
149.757
149.78
149.803
149.827
149.85
149.873
149.897
149.92
149.944
149.967
149.99
150.014
150.037
150.06
150.084
150.107
150.13
150.154
150.177
150.201
150.224
150.247
150.271
150.294
150.317
150.341
150.364
150.388
150.411
150.434
150.458
150.481
150.504
150.528
150.551
150.574
150.598
150.621
150.645
150.668
150.691