/*--------------------------------*- C++ -*----------------------------------*\
| =========                 |                                                 |
| \\      /  F ield         | OpenFOAM: The Open Source CFD Toolbox           |
|  \\    /   O peration     | Version:  2.3.1                                 |
|   \\  /    A nd           | Web:      www.OpenFOAM.org                      |
|    \\/     M anipulation  |                                                 |
\*---------------------------------------------------------------------------*/
FoamFile
{
    version     2.0;
    format      ascii;
    class       volScalarField;
    location    "1e-06";
    object      thermo:alpha;
}
// * * * * * * * * * * * * * * * * * * * * * * * * * * * * * * * * * * * * * //

dimensions      [1 -1 -1 0 0 0 0];

internalField   nonuniform List<scalar> 
10000
(
5.11443e-06
5.11548e-06
5.11652e-06
5.11757e-06
5.11861e-06
5.11965e-06
5.1207e-06
5.12174e-06
5.12278e-06
5.12382e-06
5.12486e-06
5.1259e-06
5.12695e-06
5.12799e-06
5.12903e-06
5.13006e-06
5.1311e-06
5.13214e-06
5.13318e-06
5.13422e-06
5.13526e-06
5.13629e-06
5.13733e-06
5.13836e-06
5.1394e-06
5.14044e-06
5.14147e-06
5.14251e-06
5.14354e-06
5.14457e-06
5.14561e-06
5.14664e-06
5.14767e-06
5.1487e-06
5.14973e-06
5.15077e-06
5.1518e-06
5.15283e-06
5.15386e-06
5.15489e-06
5.15591e-06
5.15694e-06
5.15797e-06
5.159e-06
5.16003e-06
5.16105e-06
5.16208e-06
5.16311e-06
5.16413e-06
5.16516e-06
5.16618e-06
5.16721e-06
5.16823e-06
5.16925e-06
5.17028e-06
5.1713e-06
5.17232e-06
5.17334e-06
5.17436e-06
5.17538e-06
5.17641e-06
5.17743e-06
5.17845e-06
5.17946e-06
5.18048e-06
5.1815e-06
5.18252e-06
5.18354e-06
5.18455e-06
5.18557e-06
5.18659e-06
5.1876e-06
5.18862e-06
5.18963e-06
5.19065e-06
5.19166e-06
5.19268e-06
5.19369e-06
5.1947e-06
5.19571e-06
5.19673e-06
5.19774e-06
5.19875e-06
5.19976e-06
5.20077e-06
5.20178e-06
5.20279e-06
5.2038e-06
5.20481e-06
5.20581e-06
5.20682e-06
5.20783e-06
5.20884e-06
5.20984e-06
5.21085e-06
5.21185e-06
5.21286e-06
5.21386e-06
5.21487e-06
5.21587e-06
5.21687e-06
5.21788e-06
5.21888e-06
5.21988e-06
5.22088e-06
5.22188e-06
5.22289e-06
5.22389e-06
5.22489e-06
5.22588e-06
5.22688e-06
5.22788e-06
5.22888e-06
5.22988e-06
5.23087e-06
5.23187e-06
5.23287e-06
5.23386e-06
5.23486e-06
5.23585e-06
5.23685e-06
5.23784e-06
5.23884e-06
5.23983e-06
5.24082e-06
5.24181e-06
5.24281e-06
5.2438e-06
5.24479e-06
5.24578e-06
5.24677e-06
5.24776e-06
5.24875e-06
5.24974e-06
5.25072e-06
5.25171e-06
5.2527e-06
5.25369e-06
5.25467e-06
5.25566e-06
5.25664e-06
5.25763e-06
5.25861e-06
5.2596e-06
5.26058e-06
5.26156e-06
5.26255e-06
5.26353e-06
5.26451e-06
5.26549e-06
5.26647e-06
5.26745e-06
5.26844e-06
5.26941e-06
5.27039e-06
5.27137e-06
5.27235e-06
5.27333e-06
5.27431e-06
5.27528e-06
5.27626e-06
5.27724e-06
5.27821e-06
5.27919e-06
5.28016e-06
5.28114e-06
5.28211e-06
5.28308e-06
5.28406e-06
5.28503e-06
5.286e-06
5.28697e-06
5.28794e-06
5.28891e-06
5.28988e-06
5.29085e-06
5.29182e-06
5.29279e-06
5.29376e-06
5.29473e-06
5.29569e-06
5.29666e-06
5.29763e-06
5.29859e-06
5.29956e-06
5.30052e-06
5.30149e-06
5.30245e-06
5.30341e-06
5.30438e-06
5.30534e-06
5.3063e-06
5.30726e-06
5.30823e-06
5.30919e-06
5.31015e-06
5.31111e-06
5.31207e-06
5.31302e-06
5.31398e-06
5.31494e-06
5.3159e-06
5.31686e-06
5.31781e-06
5.31877e-06
5.31972e-06
5.32068e-06
5.32163e-06
5.32259e-06
5.32354e-06
5.3245e-06
5.32545e-06
5.3264e-06
5.32735e-06
5.3283e-06
5.32925e-06
5.3302e-06
5.33115e-06
5.3321e-06
5.33305e-06
5.334e-06
5.33495e-06
5.3359e-06
5.33684e-06
5.33779e-06
5.33874e-06
5.33968e-06
5.34063e-06
5.34157e-06
5.34252e-06
5.34346e-06
5.3444e-06
5.34535e-06
5.34629e-06
5.34723e-06
5.34817e-06
5.34911e-06
5.35005e-06
5.35099e-06
5.35193e-06
5.35287e-06
5.35381e-06
5.35475e-06
5.35568e-06
5.35662e-06
5.35756e-06
5.35849e-06
5.35943e-06
5.36036e-06
5.3613e-06
5.36223e-06
5.36317e-06
5.3641e-06
5.36503e-06
5.36596e-06
5.3669e-06
5.36783e-06
5.36876e-06
5.36969e-06
5.37062e-06
5.37155e-06
5.37248e-06
5.3734e-06
5.37433e-06
5.37526e-06
5.37619e-06
5.37711e-06
5.37804e-06
5.37896e-06
5.37989e-06
5.38081e-06
5.38174e-06
5.38266e-06
5.38358e-06
5.3845e-06
5.38543e-06
5.38635e-06
5.38727e-06
5.38819e-06
5.38911e-06
5.39003e-06
5.39095e-06
5.39186e-06
5.39278e-06
5.3937e-06
5.39462e-06
5.39553e-06
5.39645e-06
5.39736e-06
5.39828e-06
5.39919e-06
5.40011e-06
5.40102e-06
5.40193e-06
5.40284e-06
5.40376e-06
5.40467e-06
5.40558e-06
5.40649e-06
5.4074e-06
5.40831e-06
5.40922e-06
5.41012e-06
5.41103e-06
5.41194e-06
5.41285e-06
5.41375e-06
5.41466e-06
5.41556e-06
5.41647e-06
5.41737e-06
5.41828e-06
5.41918e-06
5.42008e-06
5.42098e-06
5.42188e-06
5.42279e-06
5.42369e-06
5.42459e-06
5.42549e-06
5.42638e-06
5.42728e-06
5.42818e-06
5.42908e-06
5.42998e-06
5.43087e-06
5.43177e-06
5.43266e-06
5.43356e-06
5.43445e-06
5.43535e-06
5.43624e-06
5.43713e-06
5.43803e-06
5.43892e-06
5.43981e-06
5.4407e-06
5.44159e-06
5.44248e-06
5.44337e-06
5.44426e-06
5.44515e-06
5.44603e-06
5.44692e-06
5.44781e-06
5.44869e-06
5.44958e-06
5.45046e-06
5.45135e-06
5.45223e-06
5.45311e-06
5.454e-06
5.45488e-06
5.45576e-06
5.45664e-06
5.45752e-06
5.4584e-06
5.45928e-06
5.46016e-06
5.46104e-06
5.46192e-06
5.4628e-06
5.46367e-06
5.46455e-06
5.46543e-06
5.4663e-06
5.46718e-06
5.46805e-06
5.46893e-06
5.4698e-06
5.47067e-06
5.47154e-06
5.47242e-06
5.47329e-06
5.47416e-06
5.47503e-06
5.4759e-06
5.47677e-06
5.47764e-06
5.4785e-06
5.47937e-06
5.48024e-06
5.4811e-06
5.48197e-06
5.48284e-06
5.4837e-06
5.48456e-06
5.48543e-06
5.48629e-06
5.48715e-06
5.48802e-06
5.48888e-06
5.48974e-06
5.4906e-06
5.49146e-06
5.49232e-06
5.49318e-06
5.49404e-06
5.49489e-06
5.49575e-06
5.49661e-06
5.49746e-06
5.49832e-06
5.49917e-06
5.50003e-06
5.50088e-06
5.50174e-06
5.50259e-06
5.50344e-06
5.50429e-06
5.50514e-06
5.50599e-06
5.50684e-06
5.50769e-06
5.50854e-06
5.50939e-06
5.51024e-06
5.51109e-06
5.51193e-06
5.51278e-06
5.51362e-06
5.51447e-06
5.51531e-06
5.51616e-06
5.517e-06
5.51784e-06
5.51869e-06
5.51953e-06
5.52037e-06
5.52121e-06
5.52205e-06
5.52289e-06
5.52373e-06
5.52457e-06
5.5254e-06
5.52624e-06
5.52708e-06
5.52791e-06
5.52875e-06
5.52958e-06
5.53042e-06
5.53125e-06
5.53209e-06
5.53292e-06
5.53375e-06
5.53458e-06
5.53541e-06
5.53624e-06
5.53707e-06
5.5379e-06
5.53873e-06
5.53956e-06
5.54039e-06
5.54121e-06
5.54204e-06
5.54287e-06
5.54369e-06
5.54452e-06
5.54534e-06
5.54616e-06
5.54699e-06
5.54781e-06
5.54863e-06
5.54945e-06
5.55027e-06
5.55109e-06
5.55191e-06
5.55273e-06
5.55355e-06
5.55437e-06
5.55518e-06
5.556e-06
5.55682e-06
5.55763e-06
5.55845e-06
5.55926e-06
5.56008e-06
5.56089e-06
5.5617e-06
5.56251e-06
5.56333e-06
5.56414e-06
5.56495e-06
5.56576e-06
5.56656e-06
5.56737e-06
5.56818e-06
5.56899e-06
5.5698e-06
5.5706e-06
5.57141e-06
5.57221e-06
5.57302e-06
5.57382e-06
5.57462e-06
5.57543e-06
5.57623e-06
5.57703e-06
5.57783e-06
5.58066e-06
5.57943e-06
5.58023e-06
5.58103e-06
5.58183e-06
5.58262e-06
5.58342e-06
5.58422e-06
5.58501e-06
5.58581e-06
5.5866e-06
5.58739e-06
5.58819e-06
5.58898e-06
5.58977e-06
5.59056e-06
5.59135e-06
5.59214e-06
5.59293e-06
5.59372e-06
5.59451e-06
5.5953e-06
5.59608e-06
5.59687e-06
5.59766e-06
5.59844e-06
5.59923e-06
5.60001e-06
5.60079e-06
5.60158e-06
5.60236e-06
5.60314e-06
5.60392e-06
5.6047e-06
5.60548e-06
5.60626e-06
5.60704e-06
5.60782e-06
5.60859e-06
5.60937e-06
5.61015e-06
5.61092e-06
5.6117e-06
5.61247e-06
5.61325e-06
5.61402e-06
5.61479e-06
5.61556e-06
5.61633e-06
5.6171e-06
5.61787e-06
5.61864e-06
5.61941e-06
5.62018e-06
5.62095e-06
5.62172e-06
5.62248e-06
5.62325e-06
5.62401e-06
5.62478e-06
5.62554e-06
5.6263e-06
5.62707e-06
5.62783e-06
5.62859e-06
5.62935e-06
5.63011e-06
5.63087e-06
5.63163e-06
5.63239e-06
5.63314e-06
5.6339e-06
5.63466e-06
5.63541e-06
5.63617e-06
5.63692e-06
5.63767e-06
5.63843e-06
5.63918e-06
5.63993e-06
5.64068e-06
5.64143e-06
5.64218e-06
5.64293e-06
5.64368e-06
5.64443e-06
5.64518e-06
5.64592e-06
5.64667e-06
5.64741e-06
5.64816e-06
5.6489e-06
5.64965e-06
5.65039e-06
5.65113e-06
5.65187e-06
5.65261e-06
5.65335e-06
5.65409e-06
5.65483e-06
5.65557e-06
5.65631e-06
5.65705e-06
5.65778e-06
5.65852e-06
5.65925e-06
5.65999e-06
5.66072e-06
5.66146e-06
5.66219e-06
5.66292e-06
5.66365e-06
5.66438e-06
5.66511e-06
5.66584e-06
5.66657e-06
5.6673e-06
5.66802e-06
5.66875e-06
5.66948e-06
5.6702e-06
5.67093e-06
5.67165e-06
5.67237e-06
5.6731e-06
5.67382e-06
5.67454e-06
5.67526e-06
5.67598e-06
5.6767e-06
5.67742e-06
5.67814e-06
5.67885e-06
5.67957e-06
5.68029e-06
5.681e-06
5.68172e-06
5.68243e-06
5.68314e-06
5.68386e-06
5.68457e-06
5.68528e-06
5.68599e-06
5.6867e-06
5.68741e-06
5.68812e-06
5.68883e-06
5.68954e-06
5.69024e-06
5.69095e-06
5.69165e-06
5.69236e-06
5.69306e-06
5.69377e-06
5.69447e-06
5.69517e-06
5.69587e-06
5.69657e-06
5.69727e-06
5.69797e-06
5.69867e-06
5.69937e-06
5.70006e-06
5.70076e-06
5.70146e-06
5.70215e-06
5.70285e-06
5.70354e-06
5.70423e-06
5.70493e-06
5.70562e-06
5.70631e-06
5.707e-06
5.70769e-06
5.70838e-06
5.70907e-06
5.70975e-06
5.71044e-06
5.71113e-06
5.71181e-06
5.7125e-06
5.71318e-06
5.71386e-06
5.71455e-06
5.71523e-06
5.71591e-06
5.71659e-06
5.71727e-06
5.71795e-06
5.71863e-06
5.71931e-06
5.71998e-06
5.72066e-06
5.72134e-06
5.72201e-06
5.72269e-06
5.72336e-06
5.72403e-06
5.7247e-06
5.72538e-06
5.72605e-06
5.72672e-06
5.72739e-06
5.72805e-06
5.72872e-06
5.72939e-06
5.73006e-06
5.73072e-06
5.73139e-06
5.73205e-06
5.73272e-06
5.73338e-06
5.73404e-06
5.7347e-06
5.73536e-06
5.73602e-06
5.73668e-06
5.73734e-06
5.738e-06
5.73866e-06
5.73931e-06
5.73997e-06
5.74062e-06
5.74128e-06
5.74193e-06
5.74259e-06
5.74324e-06
5.74389e-06
5.74454e-06
5.74519e-06
5.74584e-06
5.74649e-06
5.74714e-06
5.74778e-06
5.74843e-06
5.74908e-06
5.74972e-06
5.75036e-06
5.75101e-06
5.75165e-06
5.75229e-06
5.75293e-06
5.75357e-06
5.75421e-06
5.75485e-06
5.75549e-06
5.75613e-06
5.75677e-06
5.7574e-06
5.75804e-06
5.75867e-06
5.75931e-06
5.75994e-06
5.76057e-06
5.7612e-06
5.76184e-06
5.76247e-06
5.7631e-06
5.76372e-06
5.76435e-06
5.76498e-06
5.76561e-06
5.76623e-06
5.76686e-06
5.76748e-06
5.7681e-06
5.76873e-06
5.76935e-06
5.76997e-06
5.77059e-06
5.77121e-06
5.77183e-06
5.77245e-06
5.77307e-06
5.77368e-06
5.7743e-06
5.77491e-06
5.77553e-06
5.77614e-06
5.77675e-06
5.77737e-06
5.77798e-06
5.77859e-06
5.7792e-06
5.77981e-06
5.78042e-06
5.78102e-06
5.78163e-06
5.78224e-06
5.78284e-06
5.78345e-06
5.78405e-06
5.78465e-06
5.78526e-06
5.78586e-06
5.78646e-06
5.78706e-06
5.78766e-06
5.78826e-06
5.78885e-06
5.78945e-06
5.79005e-06
5.79064e-06
5.79124e-06
5.79183e-06
5.79242e-06
5.79301e-06
5.79361e-06
5.7942e-06
5.79479e-06
5.79538e-06
5.79596e-06
5.79655e-06
5.79714e-06
5.79772e-06
5.79831e-06
5.79889e-06
5.79948e-06
5.80006e-06
5.80064e-06
5.80122e-06
5.8018e-06
5.80238e-06
5.80296e-06
5.80354e-06
5.80412e-06
5.80469e-06
5.80527e-06
5.80584e-06
5.80642e-06
5.80699e-06
5.80756e-06
5.80814e-06
5.80871e-06
5.80928e-06
5.80985e-06
5.81041e-06
5.81098e-06
5.81155e-06
5.81212e-06
5.81268e-06
5.81324e-06
5.81381e-06
5.81437e-06
5.81493e-06
5.81549e-06
5.81605e-06
5.81661e-06
5.81717e-06
5.81773e-06
5.81829e-06
5.81884e-06
5.8194e-06
5.81995e-06
5.82051e-06
5.82106e-06
5.82161e-06
5.82217e-06
5.82272e-06
5.82327e-06
5.82381e-06
5.82436e-06
5.82491e-06
5.82546e-06
5.826e-06
5.82655e-06
5.82709e-06
5.82763e-06
5.82818e-06
5.82872e-06
5.82926e-06
5.8298e-06
5.83034e-06
5.83088e-06
5.83141e-06
5.83195e-06
5.83249e-06
5.83302e-06
5.83356e-06
5.83409e-06
5.83462e-06
5.83515e-06
5.83568e-06
5.83621e-06
5.83674e-06
5.83727e-06
5.8378e-06
5.83832e-06
5.83885e-06
5.83937e-06
5.8399e-06
5.84042e-06
5.84094e-06
5.84147e-06
5.84199e-06
5.84251e-06
5.84302e-06
5.84354e-06
5.84406e-06
5.84458e-06
5.84509e-06
5.84561e-06
5.84612e-06
5.84663e-06
5.84714e-06
5.84766e-06
5.84817e-06
5.84868e-06
5.84918e-06
5.84969e-06
5.8502e-06
5.8507e-06
5.85121e-06
5.85171e-06
5.85222e-06
5.85272e-06
5.85322e-06
5.85372e-06
5.85422e-06
5.85472e-06
5.85522e-06
5.85572e-06
5.85621e-06
5.85671e-06
5.8572e-06
5.8577e-06
5.85819e-06
5.85868e-06
5.85917e-06
5.85966e-06
5.86015e-06
5.86064e-06
5.86113e-06
5.86162e-06
5.8621e-06
5.86259e-06
5.86307e-06
5.86355e-06
5.86404e-06
5.86452e-06
5.865e-06
5.86548e-06
5.86596e-06
5.86644e-06
5.86691e-06
5.86739e-06
5.86786e-06
5.86834e-06
5.86881e-06
5.86928e-06
5.86976e-06
5.87023e-06
5.8707e-06
5.87117e-06
5.87163e-06
5.8721e-06
5.87257e-06
5.87303e-06
5.8735e-06
5.87396e-06
5.87442e-06
5.87488e-06
5.87535e-06
5.8758e-06
5.87626e-06
5.87672e-06
5.87718e-06
5.87764e-06
5.87809e-06
5.87854e-06
5.879e-06
5.87945e-06
5.8799e-06
5.88035e-06
5.8808e-06
5.88125e-06
5.8817e-06
5.88215e-06
5.88259e-06
5.88304e-06
5.88348e-06
5.88393e-06
5.88437e-06
5.88481e-06
5.88525e-06
5.88569e-06
5.88613e-06
5.88657e-06
5.887e-06
5.88744e-06
5.88787e-06
5.88831e-06
5.88874e-06
5.88917e-06
5.8896e-06
5.89003e-06
5.89046e-06
5.89089e-06
5.89132e-06
5.89175e-06
5.8943e-06
5.8926e-06
5.89302e-06
5.89344e-06
5.89386e-06
5.89428e-06
5.8947e-06
5.89512e-06
5.89554e-06
5.89596e-06
5.89637e-06
5.89679e-06
5.8972e-06
5.89762e-06
5.89803e-06
5.89844e-06
5.89885e-06
5.89926e-06
5.89967e-06
5.90007e-06
5.90048e-06
5.90089e-06
5.90129e-06
5.90169e-06
5.9021e-06
5.9025e-06
5.9029e-06
5.9033e-06
5.9037e-06
5.90409e-06
5.90449e-06
5.90489e-06
5.90528e-06
5.90567e-06
5.90607e-06
5.90646e-06
5.90685e-06
5.90724e-06
5.90763e-06
5.90802e-06
5.9084e-06
5.90879e-06
5.90917e-06
5.90956e-06
5.90994e-06
5.91032e-06
5.9107e-06
5.91108e-06
5.91146e-06
5.91184e-06
5.91222e-06
5.91259e-06
5.91297e-06
5.91334e-06
5.91371e-06
5.91409e-06
5.91446e-06
5.91483e-06
5.9152e-06
5.91556e-06
5.91593e-06
5.9163e-06
5.91666e-06
5.91702e-06
5.91739e-06
5.91775e-06
5.91811e-06
5.91847e-06
5.91883e-06
5.91919e-06
5.91954e-06
5.9199e-06
5.92025e-06
5.92061e-06
5.92096e-06
5.92131e-06
5.92166e-06
5.92201e-06
5.92236e-06
5.92271e-06
5.92305e-06
5.9234e-06
5.92374e-06
5.92409e-06
5.92443e-06
5.92477e-06
5.92511e-06
5.92545e-06
5.92579e-06
5.92612e-06
5.92646e-06
5.92679e-06
5.92713e-06
5.92746e-06
5.92779e-06
5.92812e-06
5.92845e-06
5.92878e-06
5.92911e-06
5.92944e-06
5.92976e-06
5.93009e-06
5.93041e-06
5.93073e-06
5.93105e-06
5.93137e-06
5.93169e-06
5.93201e-06
5.93233e-06
5.93264e-06
5.93296e-06
5.93327e-06
5.93359e-06
5.9339e-06
5.93421e-06
5.93452e-06
5.93483e-06
5.93513e-06
5.93544e-06
5.93575e-06
5.93605e-06
5.93635e-06
5.93665e-06
5.93696e-06
5.93726e-06
5.93755e-06
5.93785e-06
5.93815e-06
5.93844e-06
5.93874e-06
5.93903e-06
5.93932e-06
5.93962e-06
5.93991e-06
5.94019e-06
5.94048e-06
5.94077e-06
5.94105e-06
5.94134e-06
5.94162e-06
5.9419e-06
5.94219e-06
5.94247e-06
5.94275e-06
5.94302e-06
5.9433e-06
5.94358e-06
5.94385e-06
5.94412e-06
5.9444e-06
5.94467e-06
5.94494e-06
5.94521e-06
5.94547e-06
5.94574e-06
5.94601e-06
5.94627e-06
5.94654e-06
5.9468e-06
5.94706e-06
5.94732e-06
5.94758e-06
5.94784e-06
5.94809e-06
5.94835e-06
5.9486e-06
5.94886e-06
5.94911e-06
5.94936e-06
5.94961e-06
5.94986e-06
5.9501e-06
5.95035e-06
5.9506e-06
5.95084e-06
5.95108e-06
5.95132e-06
5.95157e-06
5.9518e-06
5.95204e-06
5.95228e-06
5.95252e-06
5.95275e-06
5.95299e-06
5.95322e-06
5.95345e-06
5.95368e-06
5.95391e-06
5.95414e-06
5.95436e-06
5.95459e-06
5.95481e-06
5.95504e-06
5.95526e-06
5.95548e-06
5.9557e-06
5.95592e-06
5.95613e-06
5.95635e-06
5.95657e-06
5.95678e-06
5.95699e-06
5.9572e-06
5.95741e-06
5.95762e-06
5.95783e-06
5.95804e-06
5.95824e-06
5.95845e-06
5.95865e-06
5.95885e-06
5.95905e-06
5.95925e-06
5.95945e-06
5.95965e-06
5.95984e-06
5.96004e-06
5.96023e-06
5.96043e-06
5.96062e-06
5.96081e-06
5.96099e-06
5.96118e-06
5.96137e-06
5.96155e-06
5.96174e-06
5.96192e-06
5.9621e-06
5.96228e-06
5.96246e-06
5.96264e-06
5.96281e-06
5.96299e-06
5.96316e-06
5.96334e-06
5.96351e-06
5.96368e-06
5.96385e-06
5.96402e-06
5.96418e-06
5.96435e-06
5.96451e-06
5.96467e-06
5.96484e-06
5.965e-06
5.96516e-06
5.96531e-06
5.96547e-06
5.96563e-06
5.96578e-06
5.96593e-06
5.96608e-06
5.96624e-06
5.96638e-06
5.96653e-06
5.96668e-06
5.96682e-06
5.96697e-06
5.96711e-06
5.96725e-06
5.96739e-06
5.96753e-06
5.96767e-06
5.96781e-06
5.96794e-06
5.96808e-06
5.96821e-06
5.96834e-06
5.96847e-06
5.9686e-06
5.96873e-06
5.96885e-06
5.96898e-06
5.9691e-06
5.96922e-06
5.96934e-06
5.96946e-06
5.96958e-06
5.9697e-06
5.96982e-06
5.96993e-06
5.97004e-06
5.97016e-06
5.97027e-06
5.97038e-06
5.97048e-06
5.97059e-06
5.9707e-06
5.9708e-06
5.9709e-06
5.971e-06
5.9711e-06
5.9712e-06
5.9713e-06
5.9714e-06
5.97149e-06
5.97159e-06
5.97168e-06
5.97177e-06
5.97186e-06
5.97195e-06
5.97203e-06
5.97212e-06
5.9722e-06
5.97229e-06
5.97237e-06
5.97245e-06
5.97253e-06
5.9726e-06
5.97268e-06
5.97275e-06
5.97283e-06
5.9729e-06
5.97297e-06
5.97304e-06
5.97311e-06
5.97317e-06
5.97324e-06
5.9733e-06
5.97337e-06
5.97343e-06
5.97349e-06
5.97355e-06
5.9736e-06
5.97366e-06
5.97371e-06
5.97377e-06
5.97382e-06
5.97387e-06
5.97392e-06
5.97396e-06
5.97401e-06
5.97406e-06
5.9741e-06
5.97414e-06
5.97418e-06
5.97422e-06
5.97426e-06
5.97429e-06
5.97433e-06
5.97436e-06
5.97439e-06
5.97443e-06
5.97445e-06
5.97448e-06
5.97451e-06
5.97453e-06
5.97456e-06
5.97458e-06
5.9746e-06
5.97462e-06
5.97464e-06
5.97465e-06
5.97467e-06
5.97468e-06
5.9747e-06
5.97471e-06
5.97472e-06
5.97472e-06
5.97473e-06
5.97474e-06
5.97474e-06
5.97474e-06
5.97474e-06
5.97474e-06
5.97474e-06
5.97474e-06
5.97473e-06
5.97472e-06
5.97472e-06
5.97471e-06
5.9747e-06
5.97468e-06
5.97467e-06
5.97465e-06
5.97464e-06
5.97462e-06
5.9746e-06
5.97458e-06
5.97456e-06
5.97453e-06
5.97451e-06
5.97448e-06
5.97445e-06
5.97442e-06
5.97439e-06
5.97436e-06
5.97432e-06
5.97429e-06
5.97425e-06
5.97421e-06
5.97417e-06
5.97413e-06
5.97408e-06
5.97404e-06
5.97399e-06
5.97395e-06
5.9739e-06
5.97384e-06
5.97379e-06
5.97374e-06
5.97368e-06
5.97363e-06
5.97357e-06
5.97351e-06
5.97345e-06
5.97338e-06
5.97332e-06
5.97325e-06
5.97318e-06
5.97311e-06
5.97304e-06
5.97297e-06
5.9729e-06
5.97282e-06
5.97275e-06
5.97267e-06
5.97259e-06
5.97251e-06
5.97242e-06
5.97234e-06
5.97225e-06
5.97216e-06
5.97207e-06
5.97198e-06
5.97189e-06
5.9718e-06
5.9717e-06
5.9716e-06
5.9715e-06
5.9714e-06
5.9713e-06
5.9712e-06
5.97109e-06
5.97099e-06
5.97088e-06
5.97077e-06
5.97066e-06
5.97054e-06
5.97043e-06
5.97031e-06
5.97019e-06
5.97008e-06
5.96995e-06
5.96983e-06
5.96971e-06
5.96958e-06
5.96945e-06
5.96932e-06
5.96919e-06
5.96906e-06
5.96893e-06
5.96879e-06
5.96865e-06
5.96852e-06
5.96838e-06
5.96823e-06
5.96809e-06
5.96794e-06
5.9678e-06
5.96765e-06
5.9675e-06
5.96735e-06
5.96719e-06
5.96704e-06
5.96688e-06
5.96672e-06
5.96656e-06
5.9664e-06
5.96624e-06
5.96607e-06
5.9659e-06
5.96573e-06
5.96556e-06
5.96539e-06
5.96522e-06
5.96504e-06
5.96487e-06
5.96469e-06
5.96451e-06
5.96433e-06
5.96414e-06
5.96396e-06
5.96377e-06
5.96358e-06
5.96339e-06
5.9632e-06
5.963e-06
5.96281e-06
5.96261e-06
5.96241e-06
5.96221e-06
5.96201e-06
5.9618e-06
5.9616e-06
5.96139e-06
5.96118e-06
5.96097e-06
5.96076e-06
5.96054e-06
5.95863e-06
5.96011e-06
5.95989e-06
5.95967e-06
5.95944e-06
5.95922e-06
5.95899e-06
5.95876e-06
5.95853e-06
5.9583e-06
5.95807e-06
5.95783e-06
5.95759e-06
5.95736e-06
5.95711e-06
5.95687e-06
5.95663e-06
5.95638e-06
5.95613e-06
5.95588e-06
5.95563e-06
5.95538e-06
5.95512e-06
5.95487e-06
5.95461e-06
5.95435e-06
5.95409e-06
5.95382e-06
5.95356e-06
5.95329e-06
5.95302e-06
5.95275e-06
5.95247e-06
5.9522e-06
5.95192e-06
5.95164e-06
5.95136e-06
5.95108e-06
5.9508e-06
5.95051e-06
5.95022e-06
5.94993e-06
5.94964e-06
5.94935e-06
5.94905e-06
5.94876e-06
5.94846e-06
5.94816e-06
5.94785e-06
5.94755e-06
5.94724e-06
5.94693e-06
5.94662e-06
5.94631e-06
5.946e-06
5.94568e-06
5.94537e-06
5.94505e-06
5.94472e-06
5.9444e-06
5.94408e-06
5.94375e-06
5.94342e-06
5.94309e-06
5.94276e-06
5.94242e-06
5.94208e-06
5.94175e-06
5.94141e-06
5.94106e-06
5.94072e-06
5.94037e-06
5.94003e-06
5.93968e-06
5.93932e-06
5.93897e-06
5.93861e-06
5.93826e-06
5.9379e-06
5.93753e-06
5.93717e-06
5.93681e-06
5.93644e-06
5.93607e-06
5.9357e-06
5.93532e-06
5.93495e-06
5.93457e-06
5.93419e-06
5.93381e-06
5.93343e-06
5.93304e-06
5.93265e-06
5.93227e-06
5.93187e-06
5.93148e-06
5.93109e-06
5.93069e-06
5.93029e-06
5.92989e-06
5.92948e-06
5.92908e-06
5.92867e-06
5.92826e-06
5.92785e-06
5.92744e-06
5.92702e-06
5.92661e-06
5.92619e-06
5.92577e-06
5.92534e-06
5.92492e-06
5.92449e-06
5.92406e-06
5.92363e-06
5.92319e-06
5.92276e-06
5.92232e-06
5.92188e-06
5.92144e-06
5.92099e-06
5.92055e-06
5.9201e-06
5.91965e-06
5.9192e-06
5.91874e-06
5.91829e-06
5.91783e-06
5.91737e-06
5.9169e-06
5.91644e-06
5.91597e-06
5.9155e-06
5.91503e-06
5.91456e-06
5.91408e-06
5.91361e-06
5.91313e-06
5.91264e-06
5.91216e-06
5.91167e-06
5.91119e-06
5.91069e-06
5.9102e-06
5.90971e-06
5.90921e-06
5.90871e-06
5.90821e-06
5.90771e-06
5.9072e-06
5.90669e-06
5.90618e-06
5.90567e-06
5.90516e-06
5.90464e-06
5.90412e-06
5.9036e-06
5.90308e-06
5.90255e-06
5.90203e-06
5.9015e-06
5.90097e-06
5.90043e-06
5.89989e-06
5.89936e-06
5.89882e-06
5.89827e-06
5.89773e-06
5.89718e-06
5.89663e-06
5.89608e-06
5.89553e-06
5.89497e-06
5.89441e-06
5.89385e-06
5.89329e-06
5.89272e-06
5.89215e-06
5.89158e-06
5.89101e-06
5.89044e-06
5.88986e-06
5.88928e-06
5.8887e-06
5.88812e-06
5.88753e-06
5.88694e-06
5.88635e-06
5.88576e-06
5.88516e-06
5.88457e-06
5.88397e-06
5.88337e-06
5.88276e-06
5.88215e-06
5.88155e-06
5.88093e-06
5.88032e-06
5.8797e-06
5.87909e-06
5.87847e-06
5.87784e-06
5.87722e-06
5.87659e-06
5.87596e-06
5.87533e-06
5.87469e-06
5.87405e-06
5.87341e-06
5.87277e-06
5.87213e-06
5.87148e-06
5.87083e-06
5.87018e-06
5.86953e-06
5.86887e-06
5.86821e-06
5.86755e-06
5.86689e-06
5.86622e-06
5.86555e-06
5.86488e-06
5.86421e-06
5.86353e-06
5.86285e-06
5.86217e-06
5.86149e-06
5.8608e-06
5.86012e-06
5.85943e-06
5.85873e-06
5.85804e-06
5.85734e-06
5.85664e-06
5.85594e-06
5.85523e-06
5.85452e-06
5.85381e-06
5.8531e-06
5.85238e-06
5.85167e-06
5.85095e-06
5.85022e-06
5.8495e-06
5.84877e-06
5.84804e-06
5.8473e-06
5.84657e-06
5.84583e-06
5.84509e-06
5.84435e-06
5.8436e-06
5.84285e-06
5.8421e-06
5.84135e-06
5.84059e-06
5.83983e-06
5.83907e-06
5.83831e-06
5.83754e-06
5.83677e-06
5.836e-06
5.83523e-06
5.83445e-06
5.83367e-06
5.83289e-06
5.8321e-06
5.83132e-06
5.83053e-06
5.82973e-06
5.82894e-06
5.82814e-06
5.82734e-06
5.82654e-06
5.82573e-06
5.82492e-06
5.82411e-06
5.8233e-06
5.82248e-06
5.82166e-06
5.82084e-06
5.82001e-06
5.81919e-06
5.81836e-06
5.81752e-06
5.81669e-06
5.81585e-06
5.81501e-06
5.81416e-06
5.81332e-06
5.81247e-06
5.81162e-06
5.81076e-06
5.80991e-06
5.80905e-06
5.80818e-06
5.80732e-06
5.80645e-06
5.80558e-06
5.8047e-06
5.80383e-06
5.80295e-06
5.80206e-06
5.80118e-06
5.80029e-06
5.7994e-06
5.79851e-06
5.79761e-06
5.79671e-06
5.79581e-06
5.7949e-06
5.794e-06
5.79309e-06
5.79217e-06
5.79126e-06
5.79034e-06
5.78941e-06
5.78849e-06
5.78756e-06
5.78663e-06
5.7857e-06
5.78476e-06
5.78382e-06
5.78288e-06
5.78193e-06
5.78099e-06
5.78004e-06
5.77908e-06
5.77812e-06
5.77717e-06
5.7762e-06
5.77524e-06
5.77427e-06
5.7733e-06
5.77232e-06
5.77134e-06
5.77036e-06
5.76938e-06
5.76839e-06
5.7674e-06
5.76641e-06
5.76542e-06
5.76442e-06
5.76342e-06
5.76241e-06
5.76141e-06
5.76039e-06
5.75938e-06
5.75836e-06
5.75735e-06
5.75632e-06
5.7553e-06
5.75427e-06
5.75324e-06
5.7522e-06
5.75116e-06
5.75012e-06
5.74908e-06
5.74803e-06
5.74698e-06
5.74593e-06
5.74487e-06
5.74381e-06
5.74275e-06
5.74168e-06
5.74061e-06
5.73954e-06
5.73847e-06
5.73739e-06
5.73631e-06
5.73522e-06
5.73413e-06
5.73304e-06
5.73195e-06
5.73085e-06
5.72975e-06
5.72864e-06
5.72754e-06
5.72643e-06
5.72531e-06
5.7242e-06
5.72308e-06
5.72195e-06
5.72083e-06
5.7197e-06
5.71856e-06
5.71743e-06
5.71629e-06
5.71514e-06
5.714e-06
5.71285e-06
5.7117e-06
5.71054e-06
5.70938e-06
5.70822e-06
5.70705e-06
5.70588e-06
5.70471e-06
5.70353e-06
5.70236e-06
5.70117e-06
5.69999e-06
5.6988e-06
5.6976e-06
5.69641e-06
5.69521e-06
5.69401e-06
5.6928e-06
5.69159e-06
5.69038e-06
5.68916e-06
5.68794e-06
5.68672e-06
5.68549e-06
5.68426e-06
5.68303e-06
5.68179e-06
5.68055e-06
5.6793e-06
5.67806e-06
5.6768e-06
5.67555e-06
5.67429e-06
5.67303e-06
5.67177e-06
5.6705e-06
5.66922e-06
5.66795e-06
5.66667e-06
5.66539e-06
5.6641e-06
5.66281e-06
5.66152e-06
5.66022e-06
5.65892e-06
5.65761e-06
5.65631e-06
5.655e-06
5.65368e-06
5.65236e-06
5.65104e-06
5.64971e-06
5.64838e-06
5.64705e-06
5.64571e-06
5.64437e-06
5.64303e-06
5.64168e-06
5.64033e-06
5.63897e-06
5.63762e-06
5.63625e-06
5.63489e-06
5.63352e-06
5.63214e-06
5.63076e-06
5.62938e-06
5.628e-06
5.62661e-06
5.62522e-06
5.62382e-06
5.62242e-06
5.62102e-06
5.61961e-06
5.6182e-06
5.61678e-06
5.61536e-06
5.61394e-06
5.61251e-06
5.61108e-06
5.60965e-06
5.60821e-06
5.60676e-06
5.60532e-06
5.60387e-06
5.60241e-06
5.60096e-06
5.59949e-06
5.59803e-06
5.59656e-06
5.59508e-06
5.59361e-06
5.59213e-06
5.59064e-06
5.58915e-06
5.58766e-06
5.58616e-06
5.58466e-06
5.58315e-06
5.58164e-06
5.58013e-06
5.57861e-06
5.57709e-06
5.57556e-06
5.57403e-06
5.5725e-06
5.57096e-06
5.56942e-06
5.56787e-06
5.56632e-06
5.57533e-06
5.56321e-06
5.56165e-06
5.56008e-06
5.55851e-06
5.55694e-06
5.55536e-06
5.55377e-06
5.55219e-06
5.55059e-06
5.549e-06
5.5474e-06
5.54579e-06
5.54419e-06
5.54257e-06
5.54096e-06
5.53933e-06
5.53771e-06
5.53608e-06
5.53444e-06
5.53281e-06
5.53116e-06
5.52952e-06
5.52787e-06
5.52621e-06
5.52455e-06
5.52289e-06
5.52122e-06
5.51954e-06
5.51787e-06
5.51618e-06
5.5145e-06
5.51281e-06
5.51111e-06
5.50941e-06
5.50771e-06
5.506e-06
5.50429e-06
5.50257e-06
5.50085e-06
5.49912e-06
5.49739e-06
5.49566e-06
5.49392e-06
5.49217e-06
5.49042e-06
5.48867e-06
5.48691e-06
5.48515e-06
5.48338e-06
5.48161e-06
5.47983e-06
5.47805e-06
5.47627e-06
5.47448e-06
5.47268e-06
5.47088e-06
5.46908e-06
5.46727e-06
5.46546e-06
5.46364e-06
5.46182e-06
5.45999e-06
5.45816e-06
5.45632e-06
5.45448e-06
5.45263e-06
5.45078e-06
5.44892e-06
5.44706e-06
5.4452e-06
5.44333e-06
5.44145e-06
5.43957e-06
5.43769e-06
5.4358e-06
5.4339e-06
5.432e-06
5.4301e-06
5.42819e-06
5.42627e-06
5.42435e-06
5.42243e-06
5.4205e-06
5.41857e-06
5.41663e-06
5.41468e-06
5.41273e-06
5.41078e-06
5.40882e-06
5.40686e-06
5.40489e-06
5.40291e-06
5.40093e-06
5.39895e-06
5.39696e-06
5.39496e-06
5.39296e-06
5.39096e-06
5.38895e-06
5.38693e-06
5.38491e-06
5.38289e-06
5.38086e-06
5.37882e-06
5.37678e-06
5.37473e-06
5.37268e-06
5.37062e-06
5.36856e-06
5.36649e-06
5.36442e-06
5.36234e-06
5.36026e-06
5.35817e-06
5.35608e-06
5.35398e-06
5.35187e-06
5.34976e-06
5.34765e-06
5.34553e-06
5.3434e-06
5.34127e-06
5.33913e-06
5.33699e-06
5.33484e-06
5.33269e-06
5.33053e-06
5.32836e-06
5.32619e-06
5.32401e-06
5.32183e-06
5.31965e-06
5.31745e-06
5.31525e-06
5.31305e-06
5.31084e-06
5.30863e-06
5.30641e-06
5.30418e-06
5.30195e-06
5.29971e-06
5.29747e-06
5.29522e-06
5.29296e-06
5.2907e-06
5.28843e-06
5.28616e-06
5.28388e-06
5.2816e-06
5.27931e-06
5.27701e-06
5.27471e-06
5.2724e-06
5.27009e-06
5.26777e-06
5.26545e-06
5.26311e-06
5.26078e-06
5.25843e-06
5.25609e-06
5.25373e-06
5.25137e-06
5.249e-06
5.24663e-06
5.24425e-06
5.24186e-06
5.23947e-06
5.23708e-06
5.23467e-06
5.23226e-06
5.22985e-06
5.22742e-06
5.22499e-06
5.22256e-06
5.22012e-06
5.21767e-06
5.21522e-06
5.21276e-06
5.21029e-06
5.20782e-06
5.20534e-06
5.20286e-06
5.20037e-06
5.19787e-06
5.19536e-06
5.19285e-06
5.19034e-06
5.18781e-06
5.18528e-06
5.18275e-06
5.18021e-06
5.17766e-06
5.1751e-06
5.17254e-06
5.16997e-06
5.16739e-06
5.16481e-06
5.16222e-06
5.15963e-06
5.15703e-06
5.15442e-06
5.1518e-06
5.14918e-06
5.14655e-06
5.14391e-06
5.14127e-06
5.13862e-06
5.13597e-06
5.1333e-06
5.13063e-06
5.12796e-06
5.12527e-06
5.12258e-06
5.11989e-06
5.11718e-06
5.11447e-06
5.11175e-06
5.10903e-06
5.1063e-06
5.10356e-06
5.10081e-06
5.09806e-06
5.0953e-06
5.09253e-06
5.08975e-06
5.08697e-06
5.08418e-06
5.08139e-06
5.07858e-06
5.07577e-06
5.07296e-06
5.07013e-06
5.0673e-06
5.06446e-06
5.06161e-06
5.05876e-06
5.05589e-06
5.05303e-06
5.05015e-06
5.04726e-06
5.04437e-06
5.04147e-06
5.03857e-06
5.03565e-06
5.03273e-06
5.0298e-06
5.02686e-06
5.02392e-06
5.02097e-06
5.01801e-06
5.01504e-06
5.01206e-06
5.00908e-06
5.00609e-06
5.00309e-06
5.00009e-06
4.99707e-06
4.99405e-06
4.99102e-06
4.98798e-06
4.98494e-06
4.98188e-06
4.97882e-06
4.97575e-06
4.97267e-06
4.96959e-06
4.96649e-06
4.96339e-06
4.96028e-06
4.95716e-06
4.95404e-06
4.9509e-06
4.94776e-06
4.94461e-06
4.94145e-06
4.93828e-06
4.93511e-06
4.93192e-06
4.92873e-06
4.92553e-06
4.92232e-06
4.9191e-06
4.91587e-06
4.91264e-06
4.9094e-06
4.90614e-06
4.90288e-06
4.89961e-06
4.89634e-06
4.89305e-06
4.88975e-06
4.88645e-06
4.88314e-06
4.87982e-06
4.87649e-06
4.87315e-06
4.8698e-06
4.86644e-06
4.86308e-06
4.8597e-06
4.85632e-06
4.85293e-06
4.84953e-06
4.84612e-06
4.8427e-06
4.83927e-06
4.83583e-06
4.83238e-06
4.82893e-06
4.82546e-06
4.82199e-06
4.8185e-06
4.81501e-06
4.81151e-06
4.808e-06
4.80448e-06
4.80094e-06
4.7974e-06
4.79385e-06
4.7903e-06
4.78673e-06
4.78315e-06
4.77956e-06
4.77596e-06
4.77236e-06
4.76874e-06
4.76511e-06
4.76148e-06
4.75783e-06
4.75417e-06
4.75051e-06
4.74683e-06
4.74315e-06
4.73945e-06
4.73574e-06
4.73203e-06
4.7283e-06
4.72457e-06
4.72082e-06
4.71706e-06
4.7133e-06
4.70952e-06
4.70573e-06
4.70193e-06
4.69813e-06
4.69431e-06
4.69048e-06
4.68664e-06
4.68279e-06
4.67893e-06
4.67506e-06
4.67118e-06
4.66729e-06
4.66338e-06
4.65947e-06
4.65555e-06
4.65161e-06
4.64767e-06
4.64371e-06
4.63974e-06
4.63576e-06
4.63178e-06
4.62777e-06
4.62376e-06
4.61974e-06
4.61571e-06
4.61166e-06
4.60761e-06
4.60354e-06
4.59946e-06
4.59537e-06
4.59127e-06
4.58716e-06
4.58303e-06
4.5789e-06
4.57475e-06
4.57059e-06
4.56642e-06
4.56224e-06
4.55804e-06
4.55384e-06
4.54962e-06
4.54539e-06
4.54115e-06
4.5369e-06
4.53263e-06
4.52836e-06
4.52407e-06
4.51977e-06
4.51545e-06
4.51113e-06
4.50679e-06
4.50244e-06
4.49808e-06
4.4937e-06
4.48932e-06
4.48492e-06
4.4805e-06
4.47608e-06
4.47164e-06
4.46719e-06
4.46273e-06
4.45826e-06
4.45377e-06
4.44927e-06
4.44475e-06
4.44023e-06
4.43569e-06
4.43113e-06
4.42657e-06
4.42199e-06
4.4174e-06
4.41279e-06
4.40817e-06
4.40354e-06
4.39889e-06
4.39424e-06
4.38956e-06
4.38488e-06
4.38018e-06
4.37546e-06
4.37074e-06
4.366e-06
4.36124e-06
4.35647e-06
4.35169e-06
4.3469e-06
4.34209e-06
4.33726e-06
4.33242e-06
4.32757e-06
4.3227e-06
4.31782e-06
4.31293e-06
4.30802e-06
4.30309e-06
4.29815e-06
4.2932e-06
4.28823e-06
4.28325e-06
4.27825e-06
4.27324e-06
4.26821e-06
4.26317e-06
4.25811e-06
4.25303e-06
4.24795e-06
4.24284e-06
4.23772e-06
4.23259e-06
4.22744e-06