/*--------------------------------*- C++ -*----------------------------------*\
| =========                 |                                                 |
| \\      /  F ield         | OpenFOAM: The Open Source CFD Toolbox           |
|  \\    /   O peration     | Version:  2.3.1                                 |
|   \\  /    A nd           | Web:      www.OpenFOAM.org                      |
|    \\/     M anipulation  |                                                 |
\*---------------------------------------------------------------------------*/
FoamFile
{
    version     2.0;
    format      ascii;
    class       volScalarField;
    location    "1e-06";
    object      thermo:mu;
}
// * * * * * * * * * * * * * * * * * * * * * * * * * * * * * * * * * * * * * //

dimensions      [1 -1 -1 0 0 0 0];

internalField   nonuniform List<scalar> 
10000
(
5.39522e-06
5.3966e-06
5.39799e-06
5.39937e-06
5.40076e-06
5.40214e-06
5.40353e-06
5.40491e-06
5.4063e-06
5.40768e-06
5.40907e-06
5.41045e-06
5.41183e-06
5.41322e-06
5.4146e-06
5.41599e-06
5.41737e-06
5.41876e-06
5.42014e-06
5.42153e-06
5.42291e-06
5.42429e-06
5.42568e-06
5.42706e-06
5.42845e-06
5.42983e-06
5.43121e-06
5.4326e-06
5.43398e-06
5.43537e-06
5.43675e-06
5.43814e-06
5.43952e-06
5.4409e-06
5.44229e-06
5.44367e-06
5.44506e-06
5.44644e-06
5.44782e-06
5.44921e-06
5.45059e-06
5.45198e-06
5.45336e-06
5.45474e-06
5.45613e-06
5.45751e-06
5.45889e-06
5.46028e-06
5.46166e-06
5.46305e-06
5.46443e-06
5.46581e-06
5.4672e-06
5.46858e-06
5.46996e-06
5.47135e-06
5.47273e-06
5.47411e-06
5.4755e-06
5.47688e-06
5.47827e-06
5.47965e-06
5.48103e-06
5.48242e-06
5.4838e-06
5.48518e-06
5.48657e-06
5.48795e-06
5.48933e-06
5.49072e-06
5.4921e-06
5.49348e-06
5.49487e-06
5.49625e-06
5.49763e-06
5.49902e-06
5.5004e-06
5.50178e-06
5.50317e-06
5.50455e-06
5.50593e-06
5.50731e-06
5.5087e-06
5.51008e-06
5.51146e-06
5.51285e-06
5.51423e-06
5.51561e-06
5.517e-06
5.51838e-06
5.51976e-06
5.52114e-06
5.52253e-06
5.52391e-06
5.52529e-06
5.52668e-06
5.52806e-06
5.52944e-06
5.53082e-06
5.53221e-06
5.53359e-06
5.53497e-06
5.53635e-06
5.53774e-06
5.53912e-06
5.5405e-06
5.54189e-06
5.54327e-06
5.54465e-06
5.54603e-06
5.54742e-06
5.5488e-06
5.55018e-06
5.55156e-06
5.55295e-06
5.55433e-06
5.55571e-06
5.55709e-06
5.55848e-06
5.55986e-06
5.56124e-06
5.56262e-06
5.564e-06
5.56539e-06
5.56677e-06
5.56815e-06
5.56953e-06
5.57092e-06
5.5723e-06
5.57368e-06
5.57506e-06
5.57644e-06
5.57783e-06
5.57921e-06
5.58059e-06
5.58197e-06
5.58335e-06
5.58474e-06
5.58612e-06
5.5875e-06
5.58888e-06
5.59026e-06
5.59165e-06
5.59303e-06
5.59441e-06
5.59579e-06
5.59717e-06
5.59855e-06
5.59994e-06
5.60132e-06
5.6027e-06
5.60408e-06
5.60546e-06
5.60685e-06
5.60823e-06
5.60961e-06
5.61099e-06
5.61237e-06
5.61375e-06
5.61513e-06
5.61652e-06
5.6179e-06
5.61928e-06
5.62066e-06
5.62204e-06
5.62342e-06
5.62481e-06
5.62619e-06
5.62757e-06
5.62895e-06
5.63033e-06
5.63171e-06
5.63309e-06
5.63447e-06
5.63586e-06
5.63724e-06
5.63862e-06
5.64e-06
5.64138e-06
5.64276e-06
5.64414e-06
5.64552e-06
5.6469e-06
5.64829e-06
5.64967e-06
5.65105e-06
5.65243e-06
5.65381e-06
5.65519e-06
5.65657e-06
5.65795e-06
5.65933e-06
5.66071e-06
5.6621e-06
5.66348e-06
5.66486e-06
5.66624e-06
5.66762e-06
5.669e-06
5.67038e-06
5.67176e-06
5.67314e-06
5.67452e-06
5.6759e-06
5.67728e-06
5.67866e-06
5.68005e-06
5.68143e-06
5.68281e-06
5.68419e-06
5.68557e-06
5.68695e-06
5.68833e-06
5.68971e-06
5.69109e-06
5.69247e-06
5.69385e-06
5.69523e-06
5.69661e-06
5.69799e-06
5.69937e-06
5.70075e-06
5.70213e-06
5.70351e-06
5.70489e-06
5.70627e-06
5.70765e-06
5.70903e-06
5.71041e-06
5.71179e-06
5.71317e-06
5.71455e-06
5.71593e-06
5.71731e-06
5.71869e-06
5.72007e-06
5.72145e-06
5.72283e-06
5.72421e-06
5.72559e-06
5.72697e-06
5.72835e-06
5.72973e-06
5.73111e-06
5.73249e-06
5.73387e-06
5.73525e-06
5.73663e-06
5.73801e-06
5.73939e-06
5.74077e-06
5.74215e-06
5.74353e-06
5.74491e-06
5.74629e-06
5.74767e-06
5.74905e-06
5.75043e-06
5.75181e-06
5.75319e-06
5.75457e-06
5.75595e-06
5.75733e-06
5.75871e-06
5.76009e-06
5.76147e-06
5.76285e-06
5.76422e-06
5.7656e-06
5.76698e-06
5.76836e-06
5.76974e-06
5.77112e-06
5.7725e-06
5.77388e-06
5.77526e-06
5.77664e-06
5.77802e-06
5.7794e-06
5.78078e-06
5.78216e-06
5.78353e-06
5.78491e-06
5.78629e-06
5.78767e-06
5.78905e-06
5.79043e-06
5.79181e-06
5.79319e-06
5.79457e-06
5.79595e-06
5.79732e-06
5.7987e-06
5.80008e-06
5.80146e-06
5.80284e-06
5.80422e-06
5.8056e-06
5.80698e-06
5.80836e-06
5.80973e-06
5.81111e-06
5.81249e-06
5.81387e-06
5.81525e-06
5.81663e-06
5.81801e-06
5.81938e-06
5.82076e-06
5.82214e-06
5.82352e-06
5.8249e-06
5.82628e-06
5.82766e-06
5.82903e-06
5.83041e-06
5.83179e-06
5.83317e-06
5.83455e-06
5.83593e-06
5.8373e-06
5.83868e-06
5.84006e-06
5.84144e-06
5.84282e-06
5.8442e-06
5.84557e-06
5.84695e-06
5.84833e-06
5.84971e-06
5.85109e-06
5.85247e-06
5.85384e-06
5.85522e-06
5.8566e-06
5.85798e-06
5.85936e-06
5.86073e-06
5.86211e-06
5.86349e-06
5.86487e-06
5.86625e-06
5.86762e-06
5.869e-06
5.87038e-06
5.87176e-06
5.87313e-06
5.87451e-06
5.87589e-06
5.87727e-06
5.87865e-06
5.88002e-06
5.8814e-06
5.88278e-06
5.88416e-06
5.88553e-06
5.88691e-06
5.88829e-06
5.88967e-06
5.89104e-06
5.89242e-06
5.8938e-06
5.89518e-06
5.89655e-06
5.89793e-06
5.89931e-06
5.90069e-06
5.90206e-06
5.90344e-06
5.90482e-06
5.9062e-06
5.90757e-06
5.90895e-06
5.91033e-06
5.91171e-06
5.91308e-06
5.91446e-06
5.91584e-06
5.91721e-06
5.91859e-06
5.91997e-06
5.92135e-06
5.92272e-06
5.9241e-06
5.92548e-06
5.92685e-06
5.92823e-06
5.92961e-06
5.93099e-06
5.93236e-06
5.93374e-06
5.93512e-06
5.93649e-06
5.93787e-06
5.93925e-06
5.94062e-06
5.942e-06
5.94338e-06
5.94475e-06
5.94613e-06
5.94751e-06
5.94888e-06
5.95026e-06
5.95164e-06
5.95301e-06
5.95439e-06
5.95577e-06
5.95714e-06
5.95852e-06
5.9599e-06
5.96127e-06
5.96265e-06
5.96403e-06
5.9654e-06
5.96678e-06
5.96816e-06
5.96953e-06
5.97091e-06
5.97229e-06
5.97366e-06
5.97504e-06
5.97642e-06
5.97779e-06
5.97917e-06
5.98054e-06
5.98192e-06
5.9833e-06
5.98467e-06
5.98605e-06
5.98743e-06
5.9888e-06
5.99018e-06
5.99155e-06
5.99293e-06
5.99431e-06
5.99568e-06
5.99706e-06
5.99843e-06
5.99981e-06
6.00119e-06
6.00256e-06
6.00394e-06
6.00531e-06
6.00669e-06
6.00807e-06
6.00944e-06
6.01082e-06
6.01219e-06
6.01357e-06
6.01494e-06
6.01632e-06
6.0177e-06
6.01907e-06
6.02045e-06
6.02182e-06
6.0232e-06
6.02457e-06
6.02595e-06
6.02733e-06
6.0287e-06
6.03008e-06
6.03145e-06
6.03283e-06
6.0342e-06
6.03558e-06
6.03695e-06
6.03833e-06
6.03971e-06
6.04108e-06
6.04246e-06
6.04383e-06
6.04521e-06
6.04658e-06
6.04796e-06
6.04933e-06
6.05071e-06
6.05208e-06
6.05346e-06
6.05483e-06
6.05621e-06
6.05758e-06
6.05896e-06
6.06033e-06
6.06171e-06
6.06308e-06
6.06446e-06
6.06584e-06
6.06721e-06
6.06859e-06
6.06996e-06
6.07134e-06
6.07271e-06
6.07408e-06
6.07546e-06
6.07683e-06
6.07821e-06
6.07958e-06
6.08096e-06
6.08233e-06
6.08719e-06
6.08508e-06
6.08646e-06
6.08783e-06
6.08921e-06
6.09058e-06
6.09196e-06
6.09333e-06
6.09471e-06
6.09608e-06
6.09746e-06
6.09883e-06
6.1002e-06
6.10158e-06
6.10295e-06
6.10433e-06
6.1057e-06
6.10708e-06
6.10845e-06
6.10983e-06
6.1112e-06
6.11257e-06
6.11395e-06
6.11532e-06
6.1167e-06
6.11807e-06
6.11945e-06
6.12082e-06
6.1222e-06
6.12357e-06
6.12494e-06
6.12632e-06
6.12769e-06
6.12907e-06
6.13044e-06
6.13181e-06
6.13319e-06
6.13456e-06
6.13594e-06
6.13731e-06
6.13868e-06
6.14006e-06
6.14143e-06
6.14281e-06
6.14418e-06
6.14555e-06
6.14693e-06
6.1483e-06
6.14968e-06
6.15105e-06
6.15242e-06
6.1538e-06
6.15517e-06
6.15654e-06
6.15792e-06
6.15929e-06
6.16067e-06
6.16204e-06
6.16341e-06
6.16479e-06
6.16616e-06
6.16753e-06
6.16891e-06
6.17028e-06
6.17165e-06
6.17303e-06
6.1744e-06
6.17577e-06
6.17715e-06
6.17852e-06
6.1799e-06
6.18127e-06
6.18264e-06
6.18402e-06
6.18539e-06
6.18676e-06
6.18814e-06
6.18951e-06
6.19088e-06
6.19225e-06
6.19363e-06
6.195e-06
6.19637e-06
6.19775e-06
6.19912e-06
6.20049e-06
6.20187e-06
6.20324e-06
6.20461e-06
6.20599e-06
6.20736e-06
6.20873e-06
6.2101e-06
6.21148e-06
6.21285e-06
6.21422e-06
6.2156e-06
6.21697e-06
6.21834e-06
6.21972e-06
6.22109e-06
6.22246e-06
6.22383e-06
6.22521e-06
6.22658e-06
6.22795e-06
6.22932e-06
6.2307e-06
6.23207e-06
6.23344e-06
6.23481e-06
6.23619e-06
6.23756e-06
6.23893e-06
6.24031e-06
6.24168e-06
6.24305e-06
6.24442e-06
6.24579e-06
6.24717e-06
6.24854e-06
6.24991e-06
6.25128e-06
6.25266e-06
6.25403e-06
6.2554e-06
6.25677e-06
6.25815e-06
6.25952e-06
6.26089e-06
6.26226e-06
6.26364e-06
6.26501e-06
6.26638e-06
6.26775e-06
6.26912e-06
6.2705e-06
6.27187e-06
6.27324e-06
6.27461e-06
6.27598e-06
6.27736e-06
6.27873e-06
6.2801e-06
6.28147e-06
6.28284e-06
6.28422e-06
6.28559e-06
6.28696e-06
6.28833e-06
6.2897e-06
6.29107e-06
6.29245e-06
6.29382e-06
6.29519e-06
6.29656e-06
6.29793e-06
6.29931e-06
6.30068e-06
6.30205e-06
6.30342e-06
6.30479e-06
6.30616e-06
6.30753e-06
6.30891e-06
6.31028e-06
6.31165e-06
6.31302e-06
6.31439e-06
6.31576e-06
6.31713e-06
6.31851e-06
6.31988e-06
6.32125e-06
6.32262e-06
6.32399e-06
6.32536e-06
6.32673e-06
6.32811e-06
6.32948e-06
6.33085e-06
6.33222e-06
6.33359e-06
6.33496e-06
6.33633e-06
6.3377e-06
6.33907e-06
6.34045e-06
6.34182e-06
6.34319e-06
6.34456e-06
6.34593e-06
6.3473e-06
6.34867e-06
6.35004e-06
6.35141e-06
6.35278e-06
6.35416e-06
6.35553e-06
6.3569e-06
6.35827e-06
6.35964e-06
6.36101e-06
6.36238e-06
6.36375e-06
6.36512e-06
6.36649e-06
6.36786e-06
6.36923e-06
6.3706e-06
6.37198e-06
6.37335e-06
6.37472e-06
6.37609e-06
6.37746e-06
6.37883e-06
6.3802e-06
6.38157e-06
6.38294e-06
6.38431e-06
6.38568e-06
6.38705e-06
6.38842e-06
6.38979e-06
6.39116e-06
6.39253e-06
6.3939e-06
6.39527e-06
6.39664e-06
6.39801e-06
6.39938e-06
6.40075e-06
6.40212e-06
6.40349e-06
6.40486e-06
6.40623e-06
6.4076e-06
6.40897e-06
6.41034e-06
6.41171e-06
6.41308e-06
6.41445e-06
6.41582e-06
6.41719e-06
6.41856e-06
6.41993e-06
6.4213e-06
6.42267e-06
6.42404e-06
6.42541e-06
6.42678e-06
6.42815e-06
6.42952e-06
6.43089e-06
6.43226e-06
6.43363e-06
6.435e-06
6.43637e-06
6.43774e-06
6.43911e-06
6.44048e-06
6.44185e-06
6.44322e-06
6.44459e-06
6.44596e-06
6.44733e-06
6.4487e-06
6.45007e-06
6.45144e-06
6.45281e-06
6.45418e-06
6.45555e-06
6.45692e-06
6.45828e-06
6.45965e-06
6.46102e-06
6.46239e-06
6.46376e-06
6.46513e-06
6.4665e-06
6.46787e-06
6.46924e-06
6.47061e-06
6.47198e-06
6.47335e-06
6.47472e-06
6.47608e-06
6.47745e-06
6.47882e-06
6.48019e-06
6.48156e-06
6.48293e-06
6.4843e-06
6.48567e-06
6.48704e-06
6.48841e-06
6.48977e-06
6.49114e-06
6.49251e-06
6.49388e-06
6.49525e-06
6.49662e-06
6.49799e-06
6.49936e-06
6.50072e-06
6.50209e-06
6.50346e-06
6.50483e-06
6.5062e-06
6.50757e-06
6.50894e-06
6.51031e-06
6.51167e-06
6.51304e-06
6.51441e-06
6.51578e-06
6.51715e-06
6.51852e-06
6.51989e-06
6.52125e-06
6.52262e-06
6.52399e-06
6.52536e-06
6.52673e-06
6.5281e-06
6.52946e-06
6.53083e-06
6.5322e-06
6.53357e-06
6.53494e-06
6.53631e-06
6.53767e-06
6.53904e-06
6.54041e-06
6.54178e-06
6.54315e-06
6.54451e-06
6.54588e-06
6.54725e-06
6.54862e-06
6.54999e-06
6.55135e-06
6.55272e-06
6.55409e-06
6.55546e-06
6.55683e-06
6.55819e-06
6.55956e-06
6.56093e-06
6.5623e-06
6.56367e-06
6.56503e-06
6.5664e-06
6.56777e-06
6.56914e-06
6.57051e-06
6.57187e-06
6.57324e-06
6.57461e-06
6.57598e-06
6.57734e-06
6.57871e-06
6.58008e-06
6.58145e-06
6.58281e-06
6.58418e-06
6.58555e-06
6.58692e-06
6.58828e-06
6.58965e-06
6.59102e-06
6.59239e-06
6.59375e-06
6.59512e-06
6.59649e-06
6.59786e-06
6.59922e-06
6.60059e-06
6.60196e-06
6.60332e-06
6.60469e-06
6.60606e-06
6.60743e-06
6.60879e-06
6.61016e-06
6.61153e-06
6.6129e-06
6.61426e-06
6.61563e-06
6.617e-06
6.61836e-06
6.61973e-06
6.6211e-06
6.62246e-06
6.62383e-06
6.6252e-06
6.62657e-06
6.62793e-06
6.6293e-06
6.63067e-06
6.63203e-06
6.6334e-06
6.63477e-06
6.63613e-06
6.6375e-06
6.63887e-06
6.64023e-06
6.6416e-06
6.64297e-06
6.64433e-06
6.6457e-06
6.64707e-06
6.64843e-06
6.6498e-06
6.65117e-06
6.65253e-06
6.6539e-06
6.65527e-06
6.65663e-06
6.658e-06
6.65937e-06
6.66073e-06
6.6621e-06
6.66346e-06
6.66483e-06
6.6662e-06
6.66756e-06
6.66893e-06
6.6703e-06
6.67166e-06
6.67303e-06
6.6744e-06
6.67576e-06
6.67713e-06
6.67849e-06
6.67986e-06
6.68123e-06
6.68259e-06
6.68396e-06
6.68532e-06
6.68669e-06
6.68806e-06
6.68942e-06
6.69079e-06
6.69215e-06
6.69352e-06
6.69489e-06
6.69625e-06
6.69762e-06
6.69898e-06
6.70035e-06
6.70172e-06
6.70308e-06
6.70445e-06
6.70581e-06
6.70718e-06
6.70854e-06
6.70991e-06
6.71128e-06
6.71264e-06
6.71401e-06
6.71537e-06
6.71674e-06
6.7181e-06
6.71947e-06
6.72084e-06
6.7222e-06
6.72357e-06
6.72493e-06
6.7263e-06
6.72766e-06
6.72903e-06
6.73039e-06
6.73176e-06
6.73312e-06
6.73449e-06
6.73586e-06
6.73722e-06
6.73859e-06
6.73995e-06
6.74132e-06
6.74268e-06
6.74405e-06
6.74541e-06
6.74678e-06
6.74814e-06
6.74951e-06
6.75087e-06
6.75224e-06
6.7536e-06
6.75497e-06
6.75633e-06
6.7577e-06
6.75906e-06
6.76043e-06
6.76179e-06
6.76316e-06
6.76452e-06
6.76589e-06
6.76725e-06
6.77548e-06
6.76998e-06
6.77135e-06
6.77271e-06
6.77408e-06
6.77544e-06
6.77681e-06
6.77817e-06
6.77954e-06
6.7809e-06
6.78226e-06
6.78363e-06
6.78499e-06
6.78636e-06
6.78772e-06
6.78909e-06
6.79045e-06
6.79182e-06
6.79318e-06
6.79455e-06
6.79591e-06
6.79727e-06
6.79864e-06
6.8e-06
6.80137e-06
6.80273e-06
6.8041e-06
6.80546e-06
6.80683e-06
6.80819e-06
6.80955e-06
6.81092e-06
6.81228e-06
6.81365e-06
6.81501e-06
6.81638e-06
6.81774e-06
6.8191e-06
6.82047e-06
6.82183e-06
6.8232e-06
6.82456e-06
6.82592e-06
6.82729e-06
6.82865e-06
6.83002e-06
6.83138e-06
6.83274e-06
6.83411e-06
6.83547e-06
6.83684e-06
6.8382e-06
6.83956e-06
6.84093e-06
6.84229e-06
6.84365e-06
6.84502e-06
6.84638e-06
6.84775e-06
6.84911e-06
6.85047e-06
6.85184e-06
6.8532e-06
6.85456e-06
6.85593e-06
6.85729e-06
6.85865e-06
6.86002e-06
6.86138e-06
6.86274e-06
6.86411e-06
6.86547e-06
6.86684e-06
6.8682e-06
6.86956e-06
6.87093e-06
6.87229e-06
6.87365e-06
6.87502e-06
6.87638e-06
6.87774e-06
6.87911e-06
6.88047e-06
6.88183e-06
6.88319e-06
6.88456e-06
6.88592e-06
6.88728e-06
6.88865e-06
6.89001e-06
6.89137e-06
6.89274e-06
6.8941e-06
6.89546e-06
6.89683e-06
6.89819e-06
6.89955e-06
6.90091e-06
6.90228e-06
6.90364e-06
6.905e-06
6.90637e-06
6.90773e-06
6.90909e-06
6.91045e-06
6.91182e-06
6.91318e-06
6.91454e-06
6.91591e-06
6.91727e-06
6.91863e-06
6.91999e-06
6.92136e-06
6.92272e-06
6.92408e-06
6.92544e-06
6.92681e-06
6.92817e-06
6.92953e-06
6.93089e-06
6.93226e-06
6.93362e-06
6.93498e-06
6.93634e-06
6.93771e-06
6.93907e-06
6.94043e-06
6.94179e-06
6.94316e-06
6.94452e-06
6.94588e-06
6.94724e-06
6.9486e-06
6.94997e-06
6.95133e-06
6.95269e-06
6.95405e-06
6.95542e-06
6.95678e-06
6.95814e-06
6.9595e-06
6.96086e-06
6.96223e-06
6.96359e-06
6.96495e-06
6.96631e-06
6.96767e-06
6.96904e-06
6.9704e-06
6.97176e-06
6.97312e-06
6.97448e-06
6.97585e-06
6.97721e-06
6.97857e-06
6.97993e-06
6.98129e-06
6.98265e-06
6.98402e-06
6.98538e-06
6.98674e-06
6.9881e-06
6.98946e-06
6.99082e-06
6.99219e-06
6.99355e-06
6.99491e-06
6.99627e-06
6.99763e-06
6.99899e-06
7.00036e-06
7.00172e-06
7.00308e-06
7.00444e-06
7.0058e-06
7.00716e-06
7.00852e-06
7.00988e-06
7.01125e-06
7.01261e-06
7.01397e-06
7.01533e-06
7.01669e-06
7.01805e-06
7.01941e-06
7.02077e-06
7.02214e-06
7.0235e-06
7.02486e-06
7.02622e-06
7.02758e-06
7.02894e-06
7.0303e-06
7.03166e-06
7.03302e-06
7.03439e-06
7.03575e-06
7.03711e-06
7.03847e-06
7.03983e-06
7.04119e-06
7.04255e-06
7.04391e-06
7.04527e-06
7.04663e-06
7.04799e-06
7.04936e-06
7.05072e-06
7.05208e-06
7.05344e-06
7.0548e-06
7.05616e-06
7.05752e-06
7.05888e-06
7.06024e-06
7.0616e-06
7.06296e-06
7.06432e-06
7.06568e-06
7.06704e-06
7.0684e-06
7.06976e-06
7.07112e-06
7.07249e-06
7.07385e-06
7.07521e-06
7.07657e-06
7.07793e-06
7.07929e-06
7.08065e-06
7.08201e-06
7.08337e-06
7.08473e-06
7.08609e-06
7.08745e-06
7.08881e-06
7.09017e-06
7.09153e-06
7.09289e-06
7.09425e-06
7.09561e-06
7.09697e-06
7.09833e-06
7.09969e-06
7.10105e-06
7.10241e-06
7.10377e-06
7.10513e-06
7.10649e-06
7.10785e-06
7.10921e-06
7.11057e-06
7.11193e-06
7.11329e-06
7.11465e-06
7.11601e-06
7.11737e-06
7.11873e-06
7.12009e-06
7.12145e-06
7.12281e-06
7.12417e-06
7.12553e-06
7.12689e-06
7.12825e-06
7.12961e-06
7.13097e-06
7.13232e-06
7.13368e-06
7.13504e-06
7.1364e-06
7.13776e-06
7.13912e-06
7.14048e-06
7.14184e-06
7.1432e-06
7.14456e-06
7.14592e-06
7.14728e-06
7.14864e-06
7.15e-06
7.15136e-06
7.15272e-06
7.15407e-06
7.15543e-06
7.15679e-06
7.15815e-06
7.15951e-06
7.16087e-06
7.16223e-06
7.16359e-06
7.16495e-06
7.16631e-06
7.16767e-06
7.16903e-06
7.17038e-06
7.17174e-06
7.1731e-06
7.17446e-06
7.17582e-06
7.17718e-06
7.17854e-06
7.1799e-06
7.18126e-06
7.18261e-06
7.18397e-06
7.18533e-06
7.18669e-06
7.18805e-06
7.18941e-06
7.19077e-06
7.19213e-06
7.19348e-06
7.19484e-06
7.1962e-06
7.19756e-06
7.19892e-06
7.20028e-06
7.20164e-06
7.20299e-06
7.20435e-06
7.20571e-06
7.20707e-06
7.20843e-06
7.20979e-06
7.21115e-06
7.2125e-06
7.21386e-06
7.21522e-06
7.21658e-06
7.21794e-06
7.2193e-06
7.22065e-06
7.22201e-06
7.22337e-06
7.22473e-06
7.22609e-06
7.22744e-06
7.2288e-06
7.23016e-06
7.23152e-06
7.23288e-06
7.23423e-06
7.23559e-06
7.23695e-06
7.23831e-06
7.23967e-06
7.24102e-06
7.24238e-06
7.24374e-06
7.2451e-06
7.24646e-06
7.24781e-06
7.24917e-06
7.25053e-06
7.25189e-06
7.25325e-06
7.2546e-06
7.25596e-06
7.25732e-06
7.25868e-06
7.26003e-06
7.26139e-06
7.26275e-06
7.26411e-06
7.26546e-06
7.26682e-06
7.26818e-06
7.26954e-06
7.2709e-06
7.27225e-06
7.27361e-06
7.27497e-06
7.27633e-06
7.27768e-06
7.27904e-06
7.2804e-06
7.28175e-06
7.28311e-06
7.28447e-06
7.28583e-06
7.28718e-06
7.28854e-06
7.2899e-06
7.29126e-06
7.29261e-06
7.29397e-06
7.29533e-06
7.29668e-06
7.29804e-06
7.2994e-06
7.30076e-06
7.30211e-06
7.30347e-06
7.30483e-06
7.30618e-06
7.30754e-06
7.3089e-06
7.31025e-06
7.31161e-06
7.31297e-06
7.31433e-06
7.31568e-06
7.31704e-06
7.3184e-06
7.31975e-06
7.32111e-06
7.32247e-06
7.32382e-06
7.32518e-06
7.32654e-06
7.32789e-06
7.32925e-06
7.33061e-06
7.33196e-06
7.33332e-06
7.33468e-06
7.33603e-06
7.33739e-06
7.33875e-06
7.3401e-06
7.34146e-06
7.34282e-06
7.34417e-06
7.34553e-06
7.34689e-06
7.34824e-06
7.3496e-06
7.35095e-06
7.35231e-06
7.35367e-06
7.35502e-06
7.35638e-06
7.35774e-06
7.35909e-06
7.36045e-06
7.3618e-06
7.36316e-06
7.36452e-06
7.36587e-06
7.36723e-06
7.36859e-06
7.36994e-06
7.3713e-06
7.37265e-06
7.37401e-06
7.37537e-06
7.37672e-06
7.37808e-06
7.37943e-06
7.38079e-06
7.38215e-06
7.3835e-06
7.38486e-06
7.38621e-06
7.38757e-06
7.38892e-06
7.39028e-06
7.39164e-06
7.39299e-06
7.39435e-06
7.3957e-06
7.39706e-06
7.39841e-06
7.39977e-06
7.40113e-06
7.40248e-06
7.40384e-06
7.40519e-06
7.40655e-06
7.4079e-06
7.40926e-06
7.41061e-06
7.41197e-06
7.41333e-06
7.41468e-06
7.41604e-06
7.41739e-06
7.41875e-06
7.4201e-06
7.42146e-06
7.42281e-06
7.42417e-06
7.42552e-06
7.42688e-06
7.42823e-06
7.42959e-06
7.43094e-06
7.4323e-06
7.43365e-06
7.43501e-06
7.43637e-06
7.43772e-06
7.43908e-06
7.44043e-06
7.44179e-06
7.44314e-06
7.4445e-06
7.44585e-06
7.44721e-06
7.45881e-06
7.44992e-06
7.45127e-06
7.45262e-06
7.45398e-06
7.45533e-06
7.45669e-06
7.45804e-06
7.4594e-06
7.46075e-06
7.46211e-06
7.46346e-06
7.46482e-06
7.46617e-06
7.46753e-06
7.46888e-06
7.47024e-06
7.47159e-06
7.47295e-06
7.4743e-06
7.47565e-06
7.47701e-06
7.47836e-06
7.47972e-06
7.48107e-06
7.48243e-06
7.48378e-06
7.48514e-06
7.48649e-06
7.48784e-06
7.4892e-06
7.49055e-06
7.49191e-06
7.49326e-06
7.49462e-06
7.49597e-06
7.49732e-06
7.49868e-06
7.50003e-06
7.50139e-06
7.50274e-06
7.5041e-06
7.50545e-06
7.5068e-06
7.50816e-06
7.50951e-06
7.51087e-06
7.51222e-06
7.51357e-06
7.51493e-06
7.51628e-06
7.51764e-06
7.51899e-06
7.52034e-06
7.5217e-06
7.52305e-06
7.5244e-06
7.52576e-06
7.52711e-06
7.52847e-06
7.52982e-06
7.53117e-06
7.53253e-06
7.53388e-06
7.53523e-06
7.53659e-06
7.53794e-06
7.5393e-06
7.54065e-06
7.542e-06
7.54336e-06
7.54471e-06
7.54606e-06
7.54742e-06
7.54877e-06
7.55012e-06
7.55148e-06
7.55283e-06
7.55418e-06
7.55554e-06
7.55689e-06
7.55824e-06
7.5596e-06
7.56095e-06
7.5623e-06
7.56366e-06
7.56501e-06
7.56636e-06
7.56772e-06
7.56907e-06
7.57042e-06
7.57178e-06
7.57313e-06
7.57448e-06
7.57583e-06
7.57719e-06
7.57854e-06
7.57989e-06
7.58125e-06
7.5826e-06
7.58395e-06
7.58531e-06
7.58666e-06
7.58801e-06
7.58936e-06
7.59072e-06
7.59207e-06
7.59342e-06
7.59478e-06
7.59613e-06
7.59748e-06
7.59883e-06
7.60019e-06
7.60154e-06
7.60289e-06
7.60424e-06
7.6056e-06
7.60695e-06
7.6083e-06
7.60965e-06
7.61101e-06
7.61236e-06
7.61371e-06
7.61507e-06
7.61642e-06
7.61777e-06
7.61912e-06
7.62047e-06
7.62183e-06
7.62318e-06
7.62453e-06
7.62588e-06
7.62724e-06
7.62859e-06
7.62994e-06
7.63129e-06
7.63265e-06
7.634e-06
7.63535e-06
7.6367e-06
7.63805e-06
7.63941e-06
7.64076e-06
7.64211e-06
7.64346e-06
7.64481e-06
7.64617e-06
7.64752e-06
7.64887e-06
7.65022e-06
7.65157e-06
7.65293e-06
7.65428e-06
7.65563e-06
7.65698e-06
7.65833e-06
7.65969e-06
7.66104e-06
7.66239e-06
7.66374e-06
7.66509e-06
7.66644e-06
7.6678e-06
7.66915e-06
7.6705e-06
7.67185e-06
7.6732e-06
7.67455e-06
7.67591e-06
7.67726e-06
7.67861e-06
7.67996e-06
7.68131e-06
7.68266e-06
7.68402e-06
7.68537e-06
7.68672e-06
7.68807e-06
7.68942e-06
7.69077e-06
7.69212e-06
7.69348e-06
7.69483e-06
7.69618e-06
7.69753e-06
7.69888e-06
7.70023e-06
7.70158e-06
7.70293e-06
7.70429e-06
7.70564e-06
7.70699e-06
7.70834e-06
7.70969e-06
7.71104e-06
7.71239e-06
7.71374e-06
7.71509e-06
7.71644e-06
7.7178e-06
7.71915e-06
7.7205e-06
7.72185e-06
7.7232e-06
7.72455e-06
7.7259e-06
7.72725e-06
7.7286e-06
7.72995e-06
7.7313e-06
7.73266e-06
7.73401e-06
7.73536e-06
7.73671e-06
7.73806e-06
7.73941e-06
7.74076e-06
7.74211e-06
7.74346e-06
7.74481e-06
7.74616e-06
7.74751e-06
7.74886e-06
7.75021e-06
7.75156e-06
7.75291e-06
7.75426e-06
7.75562e-06
7.75697e-06
7.75832e-06
7.75967e-06
7.76102e-06
7.76237e-06
7.76372e-06
7.76507e-06
7.76642e-06
7.76777e-06
7.76912e-06
7.77047e-06
7.77182e-06
7.77317e-06
7.77452e-06
7.77587e-06
7.77722e-06
7.77857e-06
7.77992e-06
7.78127e-06
7.78262e-06
7.78397e-06
7.78532e-06
7.78667e-06
7.78802e-06
7.78937e-06
7.79072e-06
7.79207e-06
7.79342e-06
7.79477e-06
7.79612e-06
7.79747e-06
7.79882e-06
7.80017e-06
7.80152e-06
7.80287e-06
7.80422e-06
7.80557e-06
7.80692e-06
7.80827e-06
7.80962e-06
7.81097e-06
7.81231e-06
7.81366e-06
7.81501e-06
7.81636e-06
7.81771e-06
7.81906e-06
7.82041e-06
7.82176e-06
7.82311e-06
7.82446e-06
7.82581e-06
7.82716e-06
7.82851e-06
7.82986e-06
7.83121e-06
7.83256e-06
7.83391e-06
7.83525e-06
7.8366e-06
7.83795e-06
7.8393e-06
7.84065e-06
7.842e-06
7.84335e-06
7.8447e-06
7.84605e-06
7.8474e-06
7.84875e-06
7.8501e-06
7.85144e-06
7.85279e-06
7.85414e-06
7.85549e-06
7.85684e-06
7.85819e-06
7.85954e-06
7.86089e-06
7.86224e-06
7.86358e-06
7.86493e-06
7.86628e-06
7.86763e-06
7.86898e-06
7.87033e-06
7.87168e-06
7.87303e-06
7.87437e-06
7.87572e-06
7.87707e-06
7.87842e-06
7.87977e-06
7.88112e-06
7.88247e-06
7.88381e-06
7.88516e-06
7.88651e-06
7.88786e-06
7.88921e-06
7.89056e-06
7.89191e-06
7.89325e-06
7.8946e-06
7.89595e-06
7.8973e-06
7.89865e-06
7.9e-06
7.90134e-06
7.90269e-06
7.90404e-06
7.90539e-06
7.90674e-06
7.90808e-06
7.90943e-06
7.91078e-06
7.91213e-06
7.91348e-06
7.91483e-06
7.91617e-06
7.91752e-06
7.91887e-06
7.92022e-06
7.92157e-06
7.92291e-06
7.92426e-06
7.92561e-06
7.92696e-06
7.92831e-06
7.92965e-06
7.931e-06
7.93235e-06
7.9337e-06
7.93504e-06
7.93639e-06
7.93774e-06
7.93909e-06
7.94044e-06
7.94178e-06
7.94313e-06
7.94448e-06
7.94583e-06
7.94717e-06
7.94852e-06
7.94987e-06
7.95122e-06
7.95256e-06
7.95391e-06
7.95526e-06
7.95661e-06
7.95795e-06
7.9593e-06
7.96065e-06
7.962e-06
7.96334e-06
7.96469e-06
7.96604e-06
7.96738e-06
7.96873e-06
7.97008e-06
7.97143e-06
7.97277e-06
7.97412e-06
7.97547e-06
7.97682e-06
7.97816e-06
7.97951e-06
7.98086e-06
7.9822e-06
7.98355e-06
7.9849e-06
7.98625e-06
7.98759e-06
7.98894e-06
7.99029e-06
7.99163e-06
7.99298e-06
7.99433e-06
7.99567e-06
7.99702e-06
7.99837e-06
7.99971e-06
8.00106e-06
8.00241e-06
8.00375e-06
8.0051e-06
8.00645e-06
8.00779e-06
8.00914e-06
8.01049e-06
8.01183e-06
8.01318e-06
8.01453e-06
8.01587e-06
8.01722e-06
8.01857e-06
8.01991e-06
8.02126e-06
8.02261e-06
8.02395e-06
8.0253e-06
8.02665e-06
8.02799e-06
8.02934e-06
8.03069e-06
8.03203e-06
8.03338e-06
8.03472e-06
8.03607e-06
8.03742e-06
8.03876e-06
8.04011e-06
8.04146e-06
8.0428e-06
8.04415e-06
8.04549e-06
8.04684e-06
8.04819e-06
8.04953e-06
8.05088e-06
8.05222e-06
8.05357e-06
8.05492e-06
8.05626e-06
8.05761e-06
8.05895e-06
8.0603e-06
8.06165e-06
8.06299e-06
8.06434e-06
8.06568e-06
8.06703e-06
8.06838e-06
8.06972e-06
8.07107e-06
8.07241e-06
8.07376e-06
8.0751e-06
8.07645e-06
8.0778e-06
8.07914e-06
8.08049e-06
8.08183e-06
8.08318e-06
8.08452e-06
8.08587e-06
8.08722e-06
8.08856e-06
8.08991e-06
8.09125e-06
8.0926e-06
8.09394e-06
8.09529e-06
8.09663e-06
8.09798e-06
8.09932e-06
8.10067e-06
8.10201e-06
8.10336e-06
8.10471e-06
8.10605e-06
8.1074e-06
8.10874e-06
8.11009e-06
8.11143e-06
8.11278e-06
8.11412e-06
8.11547e-06
8.11681e-06
8.11816e-06
8.1195e-06
8.12085e-06
8.12219e-06
8.11433e-06
8.12488e-06
8.12623e-06
8.12757e-06
8.12892e-06
8.13026e-06
8.13161e-06
8.13295e-06
8.1343e-06
8.13564e-06
8.13699e-06
8.13833e-06
8.13968e-06
8.14102e-06
8.14237e-06
8.14371e-06
8.14505e-06
8.1464e-06
8.14774e-06
8.14909e-06
8.15043e-06
8.15178e-06
8.15312e-06
8.15447e-06
8.15581e-06
8.15716e-06
8.1585e-06
8.15984e-06
8.16119e-06
8.16253e-06
8.16388e-06
8.16522e-06
8.16657e-06
8.16791e-06
8.16926e-06
8.1706e-06
8.17194e-06
8.17329e-06
8.17463e-06
8.17598e-06
8.17732e-06
8.17867e-06
8.18001e-06
8.18135e-06
8.1827e-06
8.18404e-06
8.18539e-06
8.18673e-06
8.18807e-06
8.18942e-06
8.19076e-06
8.19211e-06
8.19345e-06
8.19479e-06
8.19614e-06
8.19748e-06
8.19883e-06
8.20017e-06
8.20151e-06
8.20286e-06
8.2042e-06
8.20554e-06
8.20689e-06
8.20823e-06
8.20958e-06
8.21092e-06
8.21226e-06
8.21361e-06
8.21495e-06
8.21629e-06
8.21764e-06
8.21898e-06
8.22032e-06
8.22167e-06
8.22301e-06
8.22436e-06
8.2257e-06
8.22704e-06
8.22839e-06
8.22973e-06
8.23107e-06
8.23242e-06
8.23376e-06
8.2351e-06
8.23645e-06
8.23779e-06
8.23913e-06
8.24048e-06
8.24182e-06
8.24316e-06
8.24451e-06
8.24585e-06
8.24719e-06
8.24854e-06
8.24988e-06
8.25122e-06
8.25256e-06
8.25391e-06
8.25525e-06
8.25659e-06
8.25794e-06
8.25928e-06
8.26062e-06
8.26197e-06
8.26331e-06
8.26465e-06
8.26599e-06
8.26734e-06
8.26868e-06
8.27002e-06
8.27137e-06
8.27271e-06
8.27405e-06
8.27539e-06
8.27674e-06
8.27808e-06
8.27942e-06
8.28076e-06
8.28211e-06
8.28345e-06
8.28479e-06
8.28614e-06
8.28748e-06
8.28882e-06
8.29016e-06
8.29151e-06
8.29285e-06
8.29419e-06
8.29553e-06
8.29688e-06
8.29822e-06
8.29956e-06
8.3009e-06
8.30225e-06
8.30359e-06
8.30493e-06
8.30627e-06
8.30761e-06
8.30896e-06
8.3103e-06
8.31164e-06
8.31298e-06
8.31433e-06
8.31567e-06
8.31701e-06
8.31835e-06
8.31969e-06
8.32104e-06
8.32238e-06
8.32372e-06
8.32506e-06
8.3264e-06
8.32775e-06
8.32909e-06
8.33043e-06
8.33177e-06
8.33311e-06
8.33446e-06
8.3358e-06
8.33714e-06
8.33848e-06
8.33982e-06
8.34116e-06
8.34251e-06
8.34385e-06
8.34519e-06
8.34653e-06
8.34787e-06
8.34921e-06
8.35056e-06
8.3519e-06
8.35324e-06
8.35458e-06
8.35592e-06
8.35726e-06
8.35861e-06
8.35995e-06
8.36129e-06
8.36263e-06
8.36397e-06
8.36531e-06
8.36665e-06
8.368e-06
8.36934e-06
8.37068e-06
8.37202e-06
8.37336e-06
8.3747e-06
8.37604e-06
8.37739e-06
8.37873e-06
8.38007e-06
8.38141e-06
8.38275e-06
8.38409e-06
8.38543e-06
8.38677e-06
8.38811e-06
8.38946e-06
8.3908e-06
8.39214e-06
8.39348e-06
8.39482e-06
8.39616e-06
8.3975e-06
8.39884e-06
8.40018e-06
8.40152e-06
8.40287e-06
8.40421e-06
8.40555e-06
8.40689e-06
8.40823e-06
8.40957e-06
8.41091e-06
8.41225e-06
8.41359e-06
8.41493e-06
8.41627e-06
8.41761e-06
8.41895e-06
8.42029e-06
8.42164e-06
8.42298e-06
8.42432e-06
8.42566e-06
8.427e-06
8.42834e-06
8.42968e-06
8.43102e-06
8.43236e-06
8.4337e-06
8.43504e-06
8.43638e-06
8.43772e-06
8.43906e-06
8.4404e-06
8.44174e-06
8.44308e-06
8.44442e-06
8.44576e-06
8.4471e-06
8.44844e-06
8.44978e-06
8.45112e-06
8.45246e-06
8.4538e-06
8.45514e-06
8.45648e-06
8.45782e-06
8.45916e-06
8.4605e-06
8.46184e-06
8.46318e-06
8.46452e-06
8.46586e-06
8.4672e-06
8.46854e-06
8.46988e-06
8.47122e-06
8.47256e-06
8.4739e-06
8.47524e-06
8.47658e-06
8.47792e-06
8.47926e-06
8.4806e-06
8.48194e-06
8.48328e-06
8.48462e-06
8.48596e-06
8.4873e-06
8.48864e-06
8.48998e-06
8.49132e-06
8.49266e-06
8.494e-06
8.49534e-06
8.49668e-06
8.49802e-06
8.49936e-06
8.50069e-06
8.50203e-06
8.50337e-06
8.50471e-06
8.50605e-06
8.50739e-06
8.50873e-06
8.51007e-06
8.51141e-06
8.51275e-06
8.51409e-06
8.51543e-06
8.51677e-06
8.51811e-06
8.51944e-06
8.52078e-06
8.52212e-06
8.52346e-06
8.5248e-06
8.52614e-06
8.52748e-06
8.52882e-06
8.53016e-06
8.5315e-06
8.53283e-06
8.53417e-06
8.53551e-06
8.53685e-06
8.53819e-06
8.53953e-06
8.54087e-06
8.54221e-06
8.54355e-06
8.54488e-06
8.54622e-06
8.54756e-06
8.5489e-06
8.55024e-06
8.55158e-06
8.55292e-06
8.55426e-06
8.55559e-06
8.55693e-06
8.55827e-06
8.55961e-06
8.56095e-06
8.56229e-06
8.56362e-06
8.56496e-06
8.5663e-06
8.56764e-06
8.56898e-06
8.57032e-06
8.57166e-06
8.57299e-06
8.57433e-06
8.57567e-06
8.57701e-06
8.57835e-06
8.57969e-06
8.58102e-06
8.58236e-06
8.5837e-06
8.58504e-06
8.58638e-06
8.58771e-06
8.58905e-06
8.59039e-06
8.59173e-06
8.59307e-06
8.5944e-06
8.59574e-06
8.59708e-06
8.59842e-06
8.59976e-06
8.60109e-06
8.60243e-06
8.60377e-06
8.60511e-06
8.60645e-06
8.60778e-06
8.60912e-06
8.61046e-06
8.6118e-06
8.61313e-06
8.61447e-06
8.61581e-06
8.61715e-06
8.61849e-06
8.61982e-06
8.62116e-06
8.6225e-06
8.62384e-06
8.62517e-06
8.62651e-06
8.62785e-06
8.62919e-06
8.63052e-06
8.63186e-06
8.6332e-06
8.63454e-06
8.63587e-06
8.63721e-06
8.63855e-06
8.63989e-06
8.64122e-06
8.64256e-06
8.6439e-06
8.64523e-06
8.64657e-06
8.64791e-06
8.64925e-06
8.65058e-06
8.65192e-06
8.65326e-06
8.6546e-06
8.65593e-06
8.65727e-06
8.65861e-06
8.65994e-06
8.66128e-06
8.66262e-06
8.66395e-06
8.66529e-06
8.66663e-06
8.66797e-06
8.6693e-06
8.67064e-06
8.67198e-06
8.67331e-06
8.67465e-06
8.67599e-06
8.67732e-06
8.67866e-06
8.68e-06
8.68133e-06
8.68267e-06
8.68401e-06
8.68534e-06
8.68668e-06
8.68802e-06
8.68935e-06
8.69069e-06
8.69203e-06
8.69336e-06
8.6947e-06
8.69604e-06
8.69737e-06
8.69871e-06
8.70005e-06
8.70138e-06
8.70272e-06
8.70406e-06
8.70539e-06
8.70673e-06
8.70806e-06
8.7094e-06
8.71074e-06
8.71207e-06
8.71341e-06
8.71475e-06
8.71608e-06
8.71742e-06
8.71875e-06
8.72009e-06
8.72143e-06
8.72276e-06
8.7241e-06
8.72543e-06
8.72677e-06