/*--------------------------------*- C++ -*----------------------------------*\
| =========                 |                                                 |
| \\      /  F ield         | OpenFOAM: The Open Source CFD Toolbox           |
|  \\    /   O peration     | Version:  2.3.1                                 |
|   \\  /    A nd           | Web:      www.OpenFOAM.org                      |
|    \\/     M anipulation  |                                                 |
\*---------------------------------------------------------------------------*/
FoamFile
{
    version     2.0;
    format      ascii;
    class       volScalarField;
    location    "1e-06";
    object      thermo:alpha;
}
// * * * * * * * * * * * * * * * * * * * * * * * * * * * * * * * * * * * * * //

dimensions      [1 -1 -1 0 0 0 0];

internalField   nonuniform List<scalar> 
10000
(
8.55345e-06
8.55533e-06
8.55722e-06
8.55911e-06
8.561e-06
8.56289e-06
8.56477e-06
8.56666e-06
8.56855e-06
8.57044e-06
8.57232e-06
8.57421e-06
8.5761e-06
8.57799e-06
8.57988e-06
8.58176e-06
8.58365e-06
8.58554e-06
8.58743e-06
8.58931e-06
8.5912e-06
8.59309e-06
8.59498e-06
8.59686e-06
8.59875e-06
8.60064e-06
8.60252e-06
8.60441e-06
8.6063e-06
8.60819e-06
8.61007e-06
8.61196e-06
8.61385e-06
8.61573e-06
8.61762e-06
8.61951e-06
8.6214e-06
8.62328e-06
8.62517e-06
8.62706e-06
8.62894e-06
8.63083e-06
8.63272e-06
8.6346e-06
8.63649e-06
8.63838e-06
8.64026e-06
8.64215e-06
8.64404e-06
8.64592e-06
8.64781e-06
8.6497e-06
8.65158e-06
8.65347e-06
8.65536e-06
8.65724e-06
8.65913e-06
8.66101e-06
8.6629e-06
8.66479e-06
8.66667e-06
8.66856e-06
8.67045e-06
8.67233e-06
8.67422e-06
8.6761e-06
8.67799e-06
8.67988e-06
8.68176e-06
8.68365e-06
8.68553e-06
8.68742e-06
8.68931e-06
8.69119e-06
8.69308e-06
8.69496e-06
8.69685e-06
8.69873e-06
8.70062e-06
8.70251e-06
8.70439e-06
8.70628e-06
8.70816e-06
8.71005e-06
8.71193e-06
8.71382e-06
8.7157e-06
8.71759e-06
8.71947e-06
8.72136e-06
8.72325e-06
8.72513e-06
8.72702e-06
8.7289e-06
8.73079e-06
8.73267e-06
8.73456e-06
8.73644e-06
8.73833e-06
8.74021e-06
8.7421e-06
8.74398e-06
8.74587e-06
8.74775e-06
8.74964e-06
8.75152e-06
8.75341e-06
8.75529e-06
8.75718e-06
8.75906e-06
8.76095e-06
8.76283e-06
8.76471e-06
8.7666e-06
8.76848e-06
8.77037e-06
8.77225e-06
8.77414e-06
8.77602e-06
8.77791e-06
8.77979e-06
8.78167e-06
8.78356e-06
8.78544e-06
8.78733e-06
8.78921e-06
8.7911e-06
8.79298e-06
8.79486e-06
8.79675e-06
8.79863e-06
8.80052e-06
8.8024e-06
8.80428e-06
8.80617e-06
8.80805e-06
8.80994e-06
8.81182e-06
8.8137e-06
8.81559e-06
8.81747e-06
8.81936e-06
8.82124e-06
8.82312e-06
8.82501e-06
8.82689e-06
8.82877e-06
8.83066e-06
8.83254e-06
8.83442e-06
8.83631e-06
8.83819e-06
8.84008e-06
8.84196e-06
8.84384e-06
8.84573e-06
8.84761e-06
8.84949e-06
8.85138e-06
8.85326e-06
8.85514e-06
8.85702e-06
8.85891e-06
8.86079e-06
8.86267e-06
8.86456e-06
8.86644e-06
8.86832e-06
8.87021e-06
8.87209e-06
8.87397e-06
8.87585e-06
8.87774e-06
8.87962e-06
8.8815e-06
8.88339e-06
8.88527e-06
8.88715e-06
8.88903e-06
8.89092e-06
8.8928e-06
8.89468e-06
8.89656e-06
8.89845e-06
8.90033e-06
8.90221e-06
8.90409e-06
8.90598e-06
8.90786e-06
8.90974e-06
8.91162e-06
8.91351e-06
8.91539e-06
8.91727e-06
8.91915e-06
8.92103e-06
8.92292e-06
8.9248e-06
8.92668e-06
8.92856e-06
8.93044e-06
8.93233e-06
8.93421e-06
8.93609e-06
8.93797e-06
8.93985e-06
8.94174e-06
8.94362e-06
8.9455e-06
8.94738e-06
8.94926e-06
8.95114e-06
8.95303e-06
8.95491e-06
8.95679e-06
8.95867e-06
8.96055e-06
8.96243e-06
8.96431e-06
8.9662e-06
8.96808e-06
8.96996e-06
8.97184e-06
8.97372e-06
8.9756e-06
8.97748e-06
8.97937e-06
8.98125e-06
8.98313e-06
8.98501e-06
8.98689e-06
8.98877e-06
8.99065e-06
8.99253e-06
8.99441e-06
8.99629e-06
8.99818e-06
9.00006e-06
9.00194e-06
9.00382e-06
9.0057e-06
9.00758e-06
9.00946e-06
9.01134e-06
9.01322e-06
9.0151e-06
9.01698e-06
9.01886e-06
9.02074e-06
9.02262e-06
9.02451e-06
9.02639e-06
9.02827e-06
9.03015e-06
9.03203e-06
9.03391e-06
9.03579e-06
9.03767e-06
9.03955e-06
9.04143e-06
9.04331e-06
9.04519e-06
9.04707e-06
9.04895e-06
9.05083e-06
9.05271e-06
9.05459e-06
9.05647e-06
9.05835e-06
9.06023e-06
9.06211e-06
9.06399e-06
9.06587e-06
9.06775e-06
9.06963e-06
9.07151e-06
9.07339e-06
9.07527e-06
9.07715e-06
9.07903e-06
9.08091e-06
9.08279e-06
9.08467e-06
9.08655e-06
9.08842e-06
9.0903e-06
9.09218e-06
9.09406e-06
9.09594e-06
9.09782e-06
9.0997e-06
9.10158e-06
9.10346e-06
9.10534e-06
9.10722e-06
9.1091e-06
9.11098e-06
9.11286e-06
9.11473e-06
9.11661e-06
9.11849e-06
9.12037e-06
9.12225e-06
9.12413e-06
9.12601e-06
9.12789e-06
9.12977e-06
9.13164e-06
9.13352e-06
9.1354e-06
9.13728e-06
9.13916e-06
9.14104e-06
9.14292e-06
9.1448e-06
9.14667e-06
9.14855e-06
9.15043e-06
9.15231e-06
9.15419e-06
9.15607e-06
9.15795e-06
9.15982e-06
9.1617e-06
9.16358e-06
9.16546e-06
9.16734e-06
9.16921e-06
9.17109e-06
9.17297e-06
9.17485e-06
9.17673e-06
9.17861e-06
9.18048e-06
9.18236e-06
9.18424e-06
9.18612e-06
9.188e-06
9.18987e-06
9.19175e-06
9.19363e-06
9.19551e-06
9.19738e-06
9.19926e-06
9.20114e-06
9.20302e-06
9.2049e-06
9.20677e-06
9.20865e-06
9.21053e-06
9.21241e-06
9.21428e-06
9.21616e-06
9.21804e-06
9.21992e-06
9.22179e-06
9.22367e-06
9.22555e-06
9.22743e-06
9.2293e-06
9.23118e-06
9.23306e-06
9.23493e-06
9.23681e-06
9.23869e-06
9.24057e-06
9.24244e-06
9.24432e-06
9.2462e-06
9.24807e-06
9.24995e-06
9.25183e-06
9.2537e-06
9.25558e-06
9.25746e-06
9.25934e-06
9.26121e-06
9.26309e-06
9.26497e-06
9.26684e-06
9.26872e-06
9.2706e-06
9.27247e-06
9.27435e-06
9.27623e-06
9.2781e-06
9.27998e-06
9.28185e-06
9.28373e-06
9.28561e-06
9.28748e-06
9.28936e-06
9.29124e-06
9.29311e-06
9.29499e-06
9.29687e-06
9.29874e-06
9.30062e-06
9.30249e-06
9.30437e-06
9.30625e-06
9.30812e-06
9.31e-06
9.31187e-06
9.31375e-06
9.31563e-06
9.3175e-06
9.31938e-06
9.32125e-06
9.32313e-06
9.32501e-06
9.32688e-06
9.32876e-06
9.33063e-06
9.33251e-06
9.33438e-06
9.33626e-06
9.33814e-06
9.34001e-06
9.34189e-06
9.34376e-06
9.34564e-06
9.34751e-06
9.34939e-06
9.35126e-06
9.35314e-06
9.35501e-06
9.35689e-06
9.35877e-06
9.36064e-06
9.36252e-06
9.36439e-06
9.36627e-06
9.36814e-06
9.37002e-06
9.37189e-06
9.37377e-06
9.37564e-06
9.37752e-06
9.37939e-06
9.38127e-06
9.38314e-06
9.38502e-06
9.38689e-06
9.38877e-06
9.39064e-06
9.39252e-06
9.39439e-06
9.39627e-06
9.39814e-06
9.40001e-06
9.40189e-06
9.40376e-06
9.40564e-06
9.40751e-06
9.40939e-06
9.41126e-06
9.41314e-06
9.41501e-06
9.41689e-06
9.41876e-06
9.42063e-06
9.42251e-06
9.42438e-06
9.42626e-06
9.42813e-06
9.43001e-06
9.43188e-06
9.43375e-06
9.43563e-06
9.4375e-06
9.43938e-06
9.44125e-06
9.44312e-06
9.445e-06
9.44687e-06
9.44875e-06
9.45062e-06
9.45249e-06
9.45437e-06
9.45624e-06
9.45811e-06
9.45999e-06
9.46186e-06
9.46374e-06
9.46561e-06
9.46748e-06
9.46936e-06
9.47123e-06
9.4731e-06
9.47498e-06
9.47685e-06
9.47872e-06
9.4806e-06
9.48247e-06
9.48434e-06
9.48622e-06
9.48809e-06
9.48996e-06
9.49659e-06
9.49371e-06
9.49558e-06
9.49746e-06
9.49933e-06
9.5012e-06
9.50308e-06
9.50495e-06
9.50682e-06
9.5087e-06
9.51057e-06
9.51244e-06
9.51431e-06
9.51619e-06
9.51806e-06
9.51993e-06
9.52181e-06
9.52368e-06
9.52555e-06
9.52742e-06
9.5293e-06
9.53117e-06
9.53304e-06
9.53491e-06
9.53679e-06
9.53866e-06
9.54053e-06
9.5424e-06
9.54428e-06
9.54615e-06
9.54802e-06
9.54989e-06
9.55177e-06
9.55364e-06
9.55551e-06
9.55738e-06
9.55926e-06
9.56113e-06
9.563e-06
9.56487e-06
9.56674e-06
9.56862e-06
9.57049e-06
9.57236e-06
9.57423e-06
9.5761e-06
9.57798e-06
9.57985e-06
9.58172e-06
9.58359e-06
9.58546e-06
9.58734e-06
9.58921e-06
9.59108e-06
9.59295e-06
9.59482e-06
9.59669e-06
9.59857e-06
9.60044e-06
9.60231e-06
9.60418e-06
9.60605e-06
9.60792e-06
9.6098e-06
9.61167e-06
9.61354e-06
9.61541e-06
9.61728e-06
9.61915e-06
9.62102e-06
9.62289e-06
9.62477e-06
9.62664e-06
9.62851e-06
9.63038e-06
9.63225e-06
9.63412e-06
9.63599e-06
9.63786e-06
9.63973e-06
9.64161e-06
9.64348e-06
9.64535e-06
9.64722e-06
9.64909e-06
9.65096e-06
9.65283e-06
9.6547e-06
9.65657e-06
9.65844e-06
9.66031e-06
9.66218e-06
9.66406e-06
9.66593e-06
9.6678e-06
9.66967e-06
9.67154e-06
9.67341e-06
9.67528e-06
9.67715e-06
9.67902e-06
9.68089e-06
9.68276e-06
9.68463e-06
9.6865e-06
9.68837e-06
9.69024e-06
9.69211e-06
9.69398e-06
9.69585e-06
9.69772e-06
9.69959e-06
9.70146e-06
9.70333e-06
9.7052e-06
9.70707e-06
9.70894e-06
9.71081e-06
9.71268e-06
9.71455e-06
9.71642e-06
9.71829e-06
9.72016e-06
9.72203e-06
9.7239e-06
9.72577e-06
9.72764e-06
9.72951e-06
9.73138e-06
9.73325e-06
9.73512e-06
9.73699e-06
9.73886e-06
9.74073e-06
9.7426e-06
9.74447e-06
9.74634e-06
9.74821e-06
9.75008e-06
9.75194e-06
9.75381e-06
9.75568e-06
9.75755e-06
9.75942e-06
9.76129e-06
9.76316e-06
9.76503e-06
9.7669e-06
9.76877e-06
9.77064e-06
9.77251e-06
9.77437e-06
9.77624e-06
9.77811e-06
9.77998e-06
9.78185e-06
9.78372e-06
9.78559e-06
9.78746e-06
9.78933e-06
9.79119e-06
9.79306e-06
9.79493e-06
9.7968e-06
9.79867e-06
9.80054e-06
9.80241e-06
9.80427e-06
9.80614e-06
9.80801e-06
9.80988e-06
9.81175e-06
9.81362e-06
9.81549e-06
9.81735e-06
9.81922e-06
9.82109e-06
9.82296e-06
9.82483e-06
9.82669e-06
9.82856e-06
9.83043e-06
9.8323e-06
9.83417e-06
9.83604e-06
9.8379e-06
9.83977e-06
9.84164e-06
9.84351e-06
9.84538e-06
9.84724e-06
9.84911e-06
9.85098e-06
9.85285e-06
9.85471e-06
9.85658e-06
9.85845e-06
9.86032e-06
9.86219e-06
9.86405e-06
9.86592e-06
9.86779e-06
9.86966e-06
9.87152e-06
9.87339e-06
9.87526e-06
9.87713e-06
9.87899e-06
9.88086e-06
9.88273e-06
9.8846e-06
9.88646e-06
9.88833e-06
9.8902e-06
9.89207e-06
9.89393e-06
9.8958e-06
9.89767e-06
9.89953e-06
9.9014e-06
9.90327e-06
9.90514e-06
9.907e-06
9.90887e-06
9.91074e-06
9.9126e-06
9.91447e-06
9.91634e-06
9.9182e-06
9.92007e-06
9.92194e-06
9.9238e-06
9.92567e-06
9.92754e-06
9.9294e-06
9.93127e-06
9.93314e-06
9.935e-06
9.93687e-06
9.93874e-06
9.9406e-06
9.94247e-06
9.94434e-06
9.9462e-06
9.94807e-06
9.94994e-06
9.9518e-06
9.95367e-06
9.95554e-06
9.9574e-06
9.95927e-06
9.96113e-06
9.963e-06
9.96487e-06
9.96673e-06
9.9686e-06
9.97046e-06
9.97233e-06
9.9742e-06
9.97606e-06
9.97793e-06
9.9798e-06
9.98166e-06
9.98353e-06
9.98539e-06
9.98726e-06
9.98912e-06
9.99099e-06
9.99286e-06
9.99472e-06
9.99659e-06
9.99845e-06
1.00003e-05
1.00022e-05
1.00041e-05
1.00059e-05
1.00078e-05
1.00096e-05
1.00115e-05
1.00134e-05
1.00152e-05
1.00171e-05
1.0019e-05
1.00208e-05
1.00227e-05
1.00246e-05
1.00264e-05
1.00283e-05
1.00302e-05
1.0032e-05
1.00339e-05
1.00358e-05
1.00376e-05
1.00395e-05
1.00414e-05
1.00432e-05
1.00451e-05
1.0047e-05
1.00488e-05
1.00507e-05
1.00525e-05
1.00544e-05
1.00563e-05
1.00581e-05
1.006e-05
1.00619e-05
1.00637e-05
1.00656e-05
1.00675e-05
1.00693e-05
1.00712e-05
1.00731e-05
1.00749e-05
1.00768e-05
1.00787e-05
1.00805e-05
1.00824e-05
1.00842e-05
1.00861e-05
1.0088e-05
1.00898e-05
1.00917e-05
1.00936e-05
1.00954e-05
1.00973e-05
1.00992e-05
1.0101e-05
1.01029e-05
1.01048e-05
1.01066e-05
1.01085e-05
1.01103e-05
1.01122e-05
1.01141e-05
1.01159e-05
1.01178e-05
1.01197e-05
1.01215e-05
1.01234e-05
1.01253e-05
1.01271e-05
1.0129e-05
1.01308e-05
1.01327e-05
1.01346e-05
1.01364e-05
1.01383e-05
1.01402e-05
1.0142e-05
1.01439e-05
1.01458e-05
1.01476e-05
1.01495e-05
1.01513e-05
1.01532e-05
1.01551e-05
1.01569e-05
1.01588e-05
1.01607e-05
1.01625e-05
1.01644e-05
1.01663e-05
1.01681e-05
1.017e-05
1.01718e-05
1.01737e-05
1.01756e-05
1.01774e-05
1.01793e-05
1.01812e-05
1.0183e-05
1.01849e-05
1.01867e-05
1.01886e-05
1.01905e-05
1.01923e-05
1.01942e-05
1.01961e-05
1.01979e-05
1.01998e-05
1.02017e-05
1.02035e-05
1.02054e-05
1.02072e-05
1.02091e-05
1.0211e-05
1.02128e-05
1.02147e-05
1.02166e-05
1.02184e-05
1.02203e-05
1.02221e-05
1.0224e-05
1.02259e-05
1.02277e-05
1.02296e-05
1.02315e-05
1.02333e-05
1.02352e-05
1.0237e-05
1.02389e-05
1.02408e-05
1.02426e-05
1.02445e-05
1.02463e-05
1.02482e-05
1.02501e-05
1.02519e-05
1.02538e-05
1.02557e-05
1.02575e-05
1.02594e-05
1.02612e-05
1.02631e-05
1.0265e-05
1.02668e-05
1.02687e-05
1.02706e-05
1.02724e-05
1.02743e-05
1.02761e-05
1.0278e-05
1.02799e-05
1.02817e-05
1.02836e-05
1.02854e-05
1.02873e-05
1.02892e-05
1.0291e-05
1.02929e-05
1.02948e-05
1.02966e-05
1.02985e-05
1.03003e-05
1.03022e-05
1.03041e-05
1.03059e-05
1.03078e-05
1.03096e-05
1.03115e-05
1.03134e-05
1.03152e-05
1.03171e-05
1.03189e-05
1.03208e-05
1.03227e-05
1.03245e-05
1.03264e-05
1.03283e-05
1.03301e-05
1.0332e-05
1.03338e-05
1.03357e-05
1.03376e-05
1.03394e-05
1.03413e-05
1.03431e-05
1.0345e-05
1.03469e-05
1.03487e-05
1.03506e-05
1.03524e-05
1.03543e-05
1.03562e-05
1.0358e-05
1.03599e-05
1.03617e-05
1.03636e-05
1.03655e-05
1.03673e-05
1.03692e-05
1.0371e-05
1.03729e-05
1.03748e-05
1.03766e-05
1.03785e-05
1.03803e-05
1.03822e-05
1.03841e-05
1.03859e-05
1.03878e-05
1.03896e-05
1.03915e-05
1.03934e-05
1.03952e-05
1.03971e-05
1.03989e-05
1.04008e-05
1.04027e-05
1.04045e-05
1.04064e-05
1.04082e-05
1.04101e-05
1.0412e-05
1.04138e-05
1.04157e-05
1.04175e-05
1.04194e-05
1.04213e-05
1.04231e-05
1.04343e-05
1.04268e-05
1.04287e-05
1.04306e-05
1.04324e-05
1.04343e-05
1.04361e-05
1.0438e-05
1.04399e-05
1.04417e-05
1.04436e-05
1.04454e-05
1.04473e-05
1.04492e-05
1.0451e-05
1.04529e-05
1.04547e-05
1.04566e-05
1.04585e-05
1.04603e-05
1.04622e-05
1.0464e-05
1.04659e-05
1.04677e-05
1.04696e-05
1.04715e-05
1.04733e-05
1.04752e-05
1.0477e-05
1.04789e-05
1.04808e-05
1.04826e-05
1.04845e-05
1.04863e-05
1.04882e-05
1.04901e-05
1.04919e-05
1.04938e-05
1.04956e-05
1.04975e-05
1.04993e-05
1.05012e-05
1.05031e-05
1.05049e-05
1.05068e-05
1.05086e-05
1.05105e-05
1.05124e-05
1.05142e-05
1.05161e-05
1.05179e-05
1.05198e-05
1.05216e-05
1.05235e-05
1.05254e-05
1.05272e-05
1.05291e-05
1.05309e-05
1.05328e-05
1.05347e-05
1.05365e-05
1.05384e-05
1.05402e-05
1.05421e-05
1.05439e-05
1.05458e-05
1.05477e-05
1.05495e-05
1.05514e-05
1.05532e-05
1.05551e-05
1.05569e-05
1.05588e-05
1.05607e-05
1.05625e-05
1.05644e-05
1.05662e-05
1.05681e-05
1.05699e-05
1.05718e-05
1.05737e-05
1.05755e-05
1.05774e-05
1.05792e-05
1.05811e-05
1.05829e-05
1.05848e-05
1.05867e-05
1.05885e-05
1.05904e-05
1.05922e-05
1.05941e-05
1.05959e-05
1.05978e-05
1.05997e-05
1.06015e-05
1.06034e-05
1.06052e-05
1.06071e-05
1.06089e-05
1.06108e-05
1.06127e-05
1.06145e-05
1.06164e-05
1.06182e-05
1.06201e-05
1.06219e-05
1.06238e-05
1.06257e-05
1.06275e-05
1.06294e-05
1.06312e-05
1.06331e-05
1.06349e-05
1.06368e-05
1.06387e-05
1.06405e-05
1.06424e-05
1.06442e-05
1.06461e-05
1.06479e-05
1.06498e-05
1.06517e-05
1.06535e-05
1.06554e-05
1.06572e-05
1.06591e-05
1.06609e-05
1.06628e-05
1.06646e-05
1.06665e-05
1.06684e-05
1.06702e-05
1.06721e-05
1.06739e-05
1.06758e-05
1.06776e-05
1.06795e-05
1.06813e-05
1.06832e-05
1.06851e-05
1.06869e-05
1.06888e-05
1.06906e-05
1.06925e-05
1.06943e-05
1.06962e-05
1.06981e-05
1.06999e-05
1.07018e-05
1.07036e-05
1.07055e-05
1.07073e-05
1.07092e-05
1.0711e-05
1.07129e-05
1.07148e-05
1.07166e-05
1.07185e-05
1.07203e-05
1.07222e-05
1.0724e-05
1.07259e-05
1.07277e-05
1.07296e-05
1.07314e-05
1.07333e-05
1.07352e-05
1.0737e-05
1.07389e-05
1.07407e-05
1.07426e-05
1.07444e-05
1.07463e-05
1.07481e-05
1.075e-05
1.07519e-05
1.07537e-05
1.07556e-05
1.07574e-05
1.07593e-05
1.07611e-05
1.0763e-05
1.07648e-05
1.07667e-05
1.07685e-05
1.07704e-05
1.07723e-05
1.07741e-05
1.0776e-05
1.07778e-05
1.07797e-05
1.07815e-05
1.07834e-05
1.07852e-05
1.07871e-05
1.07889e-05
1.07908e-05
1.07927e-05
1.07945e-05
1.07964e-05
1.07982e-05
1.08001e-05
1.08019e-05
1.08038e-05
1.08056e-05
1.08075e-05
1.08093e-05
1.08112e-05
1.08131e-05
1.08149e-05
1.08168e-05
1.08186e-05
1.08205e-05
1.08223e-05
1.08242e-05
1.0826e-05
1.08279e-05
1.08297e-05
1.08316e-05
1.08334e-05
1.08353e-05
1.08372e-05
1.0839e-05
1.08409e-05
1.08427e-05
1.08446e-05
1.08464e-05
1.08483e-05
1.08501e-05
1.0852e-05
1.08538e-05
1.08557e-05
1.08575e-05
1.08594e-05
1.08613e-05
1.08631e-05
1.0865e-05
1.08668e-05
1.08687e-05
1.08705e-05
1.08724e-05
1.08742e-05
1.08761e-05
1.08779e-05
1.08798e-05
1.08816e-05
1.08835e-05
1.08853e-05
1.08872e-05
1.0889e-05
1.08909e-05
1.08928e-05
1.08946e-05
1.08965e-05
1.08983e-05
1.09002e-05
1.0902e-05
1.09039e-05
1.09057e-05
1.09076e-05
1.09094e-05
1.09113e-05
1.09131e-05
1.0915e-05
1.09168e-05
1.09187e-05
1.09205e-05
1.09224e-05
1.09243e-05
1.09261e-05
1.0928e-05
1.09298e-05
1.09317e-05
1.09335e-05
1.09354e-05
1.09372e-05
1.09391e-05
1.09409e-05
1.09428e-05
1.09446e-05
1.09465e-05
1.09483e-05
1.09502e-05
1.0952e-05
1.09539e-05
1.09557e-05
1.09576e-05
1.09594e-05
1.09613e-05
1.09632e-05
1.0965e-05
1.09669e-05
1.09687e-05
1.09706e-05
1.09724e-05
1.09743e-05
1.09761e-05
1.0978e-05
1.09798e-05
1.09817e-05
1.09835e-05
1.09854e-05
1.09872e-05
1.09891e-05
1.09909e-05
1.09928e-05
1.09946e-05
1.09965e-05
1.09983e-05
1.10002e-05
1.1002e-05
1.10039e-05
1.10057e-05
1.10076e-05
1.10094e-05
1.10113e-05
1.10131e-05
1.1015e-05
1.10168e-05
1.10187e-05
1.10206e-05
1.10224e-05
1.10243e-05
1.10261e-05
1.1028e-05
1.10298e-05
1.10317e-05
1.10335e-05
1.10354e-05
1.10372e-05
1.10391e-05
1.10409e-05
1.10428e-05
1.10446e-05
1.10465e-05
1.10483e-05
1.10502e-05
1.1052e-05
1.10539e-05
1.10557e-05
1.10576e-05
1.10594e-05
1.10613e-05
1.10631e-05
1.1065e-05
1.10668e-05
1.10687e-05
1.10705e-05
1.10724e-05
1.10742e-05
1.10761e-05
1.10779e-05
1.10798e-05
1.10816e-05
1.10835e-05
1.10853e-05
1.10872e-05
1.1089e-05
1.10909e-05
1.10927e-05
1.10946e-05
1.10964e-05
1.10983e-05
1.11001e-05
1.1102e-05
1.11038e-05
1.11057e-05
1.11075e-05
1.11094e-05
1.11112e-05
1.11131e-05
1.11149e-05
1.11168e-05
1.11186e-05
1.11205e-05
1.11223e-05
1.11242e-05
1.1126e-05
1.11279e-05
1.11297e-05
1.11316e-05
1.11334e-05
1.11353e-05
1.11371e-05
1.1139e-05
1.11408e-05
1.11427e-05
1.11445e-05
1.11464e-05
1.11482e-05
1.11501e-05
1.11519e-05
1.11538e-05
1.11556e-05
1.11575e-05
1.11593e-05
1.11612e-05
1.1163e-05
1.11649e-05
1.11667e-05
1.11686e-05
1.11704e-05
1.11723e-05
1.11741e-05
1.1176e-05
1.11778e-05
1.11797e-05
1.11815e-05
1.11834e-05
1.11852e-05
1.11871e-05
1.11889e-05
1.11908e-05
1.11926e-05
1.11945e-05
1.11963e-05
1.11982e-05
1.12e-05
1.12019e-05
1.12037e-05
1.12056e-05
1.12074e-05
1.12092e-05
1.12111e-05
1.12129e-05
1.12148e-05
1.12166e-05
1.12185e-05
1.12203e-05
1.12222e-05
1.1224e-05
1.12259e-05
1.12277e-05
1.12296e-05
1.12314e-05
1.12333e-05
1.12351e-05
1.1237e-05
1.12388e-05
1.12407e-05
1.12425e-05
1.12444e-05
1.12462e-05
1.12481e-05
1.12499e-05
1.12518e-05
1.12536e-05
1.12555e-05
1.12573e-05
1.12592e-05
1.1261e-05
1.12629e-05
1.12647e-05
1.12665e-05
1.12684e-05
1.12702e-05
1.12721e-05
1.12739e-05
1.12758e-05
1.12776e-05
1.12795e-05
1.12813e-05
1.12832e-05
1.1285e-05
1.12869e-05
1.12887e-05
1.12906e-05
1.12924e-05
1.12943e-05
1.12961e-05
1.1298e-05
1.12998e-05
1.13017e-05
1.13035e-05
1.13053e-05
1.13072e-05
1.1309e-05
1.13109e-05
1.13127e-05
1.13146e-05
1.13164e-05
1.13183e-05
1.13201e-05
1.1322e-05
1.13238e-05
1.13257e-05
1.13275e-05
1.13294e-05
1.13312e-05
1.13331e-05
1.13349e-05
1.13368e-05
1.13386e-05
1.13404e-05
1.13423e-05
1.13441e-05
1.1346e-05
1.13478e-05
1.13497e-05
1.13655e-05
1.13534e-05
1.13552e-05
1.13571e-05
1.13589e-05
1.13608e-05
1.13626e-05
1.13645e-05
1.13663e-05
1.13681e-05
1.137e-05
1.13718e-05
1.13737e-05
1.13755e-05
1.13774e-05
1.13792e-05
1.13811e-05
1.13829e-05
1.13848e-05
1.13866e-05
1.13885e-05
1.13903e-05
1.13921e-05
1.1394e-05
1.13958e-05
1.13977e-05
1.13995e-05
1.14014e-05
1.14032e-05
1.14051e-05
1.14069e-05
1.14088e-05
1.14106e-05
1.14125e-05
1.14143e-05
1.14161e-05
1.1418e-05
1.14198e-05
1.14217e-05
1.14235e-05
1.14254e-05
1.14272e-05
1.14291e-05
1.14309e-05
1.14328e-05
1.14346e-05
1.14365e-05
1.14383e-05
1.14401e-05
1.1442e-05
1.14438e-05
1.14457e-05
1.14475e-05
1.14494e-05
1.14512e-05
1.14531e-05
1.14549e-05
1.14568e-05
1.14586e-05
1.14604e-05
1.14623e-05
1.14641e-05
1.1466e-05
1.14678e-05
1.14697e-05
1.14715e-05
1.14734e-05
1.14752e-05
1.14771e-05
1.14789e-05
1.14807e-05
1.14826e-05
1.14844e-05
1.14863e-05
1.14881e-05
1.149e-05
1.14918e-05
1.14937e-05
1.14955e-05
1.14973e-05
1.14992e-05
1.1501e-05
1.15029e-05
1.15047e-05
1.15066e-05
1.15084e-05
1.15103e-05
1.15121e-05
1.1514e-05
1.15158e-05
1.15176e-05
1.15195e-05
1.15213e-05
1.15232e-05
1.1525e-05
1.15269e-05
1.15287e-05
1.15306e-05
1.15324e-05
1.15342e-05
1.15361e-05
1.15379e-05
1.15398e-05
1.15416e-05
1.15435e-05
1.15453e-05
1.15472e-05
1.1549e-05
1.15508e-05
1.15527e-05
1.15545e-05
1.15564e-05
1.15582e-05
1.15601e-05
1.15619e-05
1.15637e-05
1.15656e-05
1.15674e-05
1.15693e-05
1.15711e-05
1.1573e-05
1.15748e-05
1.15767e-05
1.15785e-05
1.15803e-05
1.15822e-05
1.1584e-05
1.15859e-05
1.15877e-05
1.15896e-05
1.15914e-05
1.15932e-05
1.15951e-05
1.15969e-05
1.15988e-05
1.16006e-05
1.16025e-05
1.16043e-05
1.16062e-05
1.1608e-05
1.16098e-05
1.16117e-05
1.16135e-05
1.16154e-05
1.16172e-05
1.16191e-05
1.16209e-05
1.16227e-05
1.16246e-05
1.16264e-05
1.16283e-05
1.16301e-05
1.1632e-05
1.16338e-05
1.16356e-05
1.16375e-05
1.16393e-05
1.16412e-05
1.1643e-05
1.16449e-05
1.16467e-05
1.16485e-05
1.16504e-05
1.16522e-05
1.16541e-05
1.16559e-05
1.16578e-05
1.16596e-05
1.16614e-05
1.16633e-05
1.16651e-05
1.1667e-05
1.16688e-05
1.16707e-05
1.16725e-05
1.16743e-05
1.16762e-05
1.1678e-05
1.16799e-05
1.16817e-05
1.16836e-05
1.16854e-05
1.16872e-05
1.16891e-05
1.16909e-05
1.16928e-05
1.16946e-05
1.16965e-05
1.16983e-05
1.17001e-05
1.1702e-05
1.17038e-05
1.17057e-05
1.17075e-05
1.17093e-05
1.17112e-05
1.1713e-05
1.17149e-05
1.17167e-05
1.17186e-05
1.17204e-05
1.17222e-05
1.17241e-05
1.17259e-05
1.17278e-05
1.17296e-05
1.17315e-05
1.17333e-05
1.17351e-05
1.1737e-05
1.17388e-05
1.17407e-05
1.17425e-05
1.17443e-05
1.17462e-05
1.1748e-05
1.17499e-05
1.17517e-05
1.17536e-05
1.17554e-05
1.17572e-05
1.17591e-05
1.17609e-05
1.17628e-05
1.17646e-05
1.17664e-05
1.17683e-05
1.17701e-05
1.1772e-05
1.17738e-05
1.17756e-05
1.17775e-05
1.17793e-05
1.17812e-05
1.1783e-05
1.17849e-05
1.17867e-05
1.17885e-05
1.17904e-05
1.17922e-05
1.17941e-05
1.17959e-05
1.17977e-05
1.17996e-05
1.18014e-05
1.18033e-05
1.18051e-05
1.18069e-05
1.18088e-05
1.18106e-05
1.18125e-05
1.18143e-05
1.18162e-05
1.1818e-05
1.18198e-05
1.18217e-05
1.18235e-05
1.18254e-05
1.18272e-05
1.1829e-05
1.18309e-05
1.18327e-05
1.18346e-05
1.18364e-05
1.18382e-05
1.18401e-05
1.18419e-05
1.18438e-05
1.18456e-05
1.18474e-05
1.18493e-05
1.18511e-05
1.1853e-05
1.18548e-05
1.18566e-05
1.18585e-05
1.18603e-05
1.18622e-05
1.1864e-05
1.18658e-05
1.18677e-05
1.18695e-05
1.18714e-05
1.18732e-05
1.1875e-05
1.18769e-05
1.18787e-05
1.18806e-05
1.18824e-05
1.18842e-05
1.18861e-05
1.18879e-05
1.18898e-05
1.18916e-05
1.18934e-05
1.18953e-05
1.18971e-05
1.1899e-05
1.19008e-05
1.19026e-05
1.19045e-05
1.19063e-05
1.19082e-05
1.191e-05
1.19118e-05
1.19137e-05
1.19155e-05
1.19174e-05
1.19192e-05
1.1921e-05
1.19229e-05
1.19247e-05
1.19266e-05
1.19284e-05
1.19302e-05
1.19321e-05
1.19339e-05
1.19357e-05
1.19376e-05
1.19394e-05
1.19413e-05
1.19431e-05
1.19449e-05
1.19468e-05
1.19486e-05
1.19505e-05
1.19523e-05
1.19541e-05
1.1956e-05
1.19578e-05
1.19597e-05
1.19615e-05
1.19633e-05
1.19652e-05
1.1967e-05
1.19689e-05
1.19707e-05
1.19725e-05
1.19744e-05
1.19762e-05
1.1978e-05
1.19799e-05
1.19817e-05
1.19836e-05
1.19854e-05
1.19872e-05
1.19891e-05
1.19909e-05
1.19928e-05
1.19946e-05
1.19964e-05
1.19983e-05
1.20001e-05
1.20019e-05
1.20038e-05
1.20056e-05
1.20075e-05
1.20093e-05
1.20111e-05
1.2013e-05
1.20148e-05
1.20167e-05
1.20185e-05
1.20203e-05
1.20222e-05
1.2024e-05
1.20258e-05
1.20277e-05
1.20295e-05
1.20314e-05
1.20332e-05
1.2035e-05
1.20369e-05
1.20387e-05
1.20405e-05
1.20424e-05
1.20442e-05
1.20461e-05
1.20479e-05
1.20497e-05
1.20516e-05
1.20534e-05
1.20552e-05
1.20571e-05
1.20589e-05
1.20608e-05
1.20626e-05
1.20644e-05
1.20663e-05
1.20681e-05
1.20699e-05
1.20718e-05
1.20736e-05
1.20755e-05
1.20773e-05
1.20791e-05
1.2081e-05
1.20828e-05
1.20846e-05
1.20865e-05
1.20883e-05
1.20902e-05
1.2092e-05
1.20938e-05
1.20957e-05
1.20975e-05
1.20993e-05
1.21012e-05
1.2103e-05
1.21049e-05
1.21067e-05
1.21085e-05
1.21104e-05
1.21122e-05
1.2114e-05
1.21159e-05
1.21177e-05
1.21196e-05
1.21214e-05
1.21232e-05
1.21251e-05
1.21269e-05
1.21287e-05
1.21306e-05
1.21324e-05
1.21342e-05
1.21361e-05
1.21379e-05
1.21398e-05
1.21416e-05
1.21434e-05
1.21453e-05
1.21471e-05
1.21489e-05
1.21508e-05
1.21526e-05
1.21544e-05
1.21563e-05
1.21581e-05
1.216e-05
1.21618e-05
1.21636e-05
1.21655e-05
1.21673e-05
1.21691e-05
1.2171e-05
1.21728e-05
1.21746e-05
1.21765e-05
1.21783e-05
1.21802e-05
1.2182e-05
1.21838e-05
1.21857e-05
1.21875e-05
1.21893e-05
1.21912e-05
1.2193e-05
1.21948e-05
1.21967e-05
1.21985e-05
1.22004e-05
1.22022e-05
1.2204e-05
1.22059e-05
1.22077e-05
1.22095e-05
1.22114e-05
1.22132e-05
1.2215e-05
1.22169e-05
1.22187e-05
1.22205e-05
1.22224e-05
1.22242e-05
1.22261e-05
1.22279e-05
1.22297e-05
1.22316e-05
1.22334e-05
1.22352e-05
1.22371e-05
1.22389e-05
1.22407e-05
1.22426e-05
1.22444e-05
1.22462e-05
1.22481e-05
1.22499e-05
1.22517e-05
1.22536e-05
1.22554e-05
1.22573e-05
1.22591e-05
1.22609e-05
1.22628e-05
1.22646e-05
1.22664e-05
1.22683e-05
1.22701e-05
1.22594e-05
1.22738e-05
1.22756e-05
1.22774e-05
1.22793e-05
1.22811e-05
1.22829e-05
1.22848e-05
1.22866e-05
1.22884e-05
1.22903e-05
1.22921e-05
1.2294e-05
1.22958e-05
1.22976e-05
1.22995e-05
1.23013e-05
1.23031e-05
1.2305e-05
1.23068e-05
1.23086e-05
1.23105e-05
1.23123e-05
1.23141e-05
1.2316e-05
1.23178e-05
1.23196e-05
1.23215e-05
1.23233e-05
1.23251e-05
1.2327e-05
1.23288e-05
1.23306e-05
1.23325e-05
1.23343e-05
1.23361e-05
1.2338e-05
1.23398e-05
1.23416e-05
1.23435e-05
1.23453e-05
1.23471e-05
1.2349e-05
1.23508e-05
1.23526e-05
1.23545e-05
1.23563e-05
1.23582e-05
1.236e-05
1.23618e-05
1.23637e-05
1.23655e-05
1.23673e-05
1.23692e-05
1.2371e-05
1.23728e-05
1.23747e-05
1.23765e-05
1.23783e-05
1.23802e-05
1.2382e-05
1.23838e-05
1.23857e-05
1.23875e-05
1.23893e-05
1.23912e-05
1.2393e-05
1.23948e-05
1.23967e-05
1.23985e-05
1.24003e-05
1.24022e-05
1.2404e-05
1.24058e-05
1.24077e-05
1.24095e-05
1.24113e-05
1.24132e-05
1.2415e-05
1.24168e-05
1.24187e-05
1.24205e-05
1.24223e-05
1.24242e-05
1.2426e-05
1.24278e-05
1.24297e-05
1.24315e-05
1.24333e-05
1.24352e-05
1.2437e-05
1.24388e-05
1.24407e-05
1.24425e-05
1.24443e-05
1.24462e-05
1.2448e-05
1.24498e-05
1.24516e-05
1.24535e-05
1.24553e-05
1.24571e-05
1.2459e-05
1.24608e-05
1.24626e-05
1.24645e-05
1.24663e-05
1.24681e-05
1.247e-05
1.24718e-05
1.24736e-05
1.24755e-05
1.24773e-05
1.24791e-05
1.2481e-05
1.24828e-05
1.24846e-05
1.24865e-05
1.24883e-05
1.24901e-05
1.2492e-05
1.24938e-05
1.24956e-05
1.24975e-05
1.24993e-05
1.25011e-05
1.2503e-05
1.25048e-05
1.25066e-05
1.25085e-05
1.25103e-05
1.25121e-05
1.25139e-05
1.25158e-05
1.25176e-05
1.25194e-05
1.25213e-05
1.25231e-05
1.25249e-05
1.25268e-05
1.25286e-05
1.25304e-05
1.25323e-05
1.25341e-05
1.25359e-05
1.25378e-05
1.25396e-05
1.25414e-05
1.25433e-05
1.25451e-05
1.25469e-05
1.25488e-05
1.25506e-05
1.25524e-05
1.25542e-05
1.25561e-05
1.25579e-05
1.25597e-05
1.25616e-05
1.25634e-05
1.25652e-05
1.25671e-05
1.25689e-05
1.25707e-05
1.25726e-05
1.25744e-05
1.25762e-05
1.25781e-05
1.25799e-05
1.25817e-05
1.25835e-05
1.25854e-05
1.25872e-05
1.2589e-05
1.25909e-05
1.25927e-05
1.25945e-05
1.25964e-05
1.25982e-05
1.26e-05
1.26019e-05
1.26037e-05
1.26055e-05
1.26073e-05
1.26092e-05
1.2611e-05
1.26128e-05
1.26147e-05
1.26165e-05
1.26183e-05
1.26202e-05
1.2622e-05
1.26238e-05
1.26257e-05
1.26275e-05
1.26293e-05
1.26311e-05
1.2633e-05
1.26348e-05
1.26366e-05
1.26385e-05
1.26403e-05
1.26421e-05
1.2644e-05
1.26458e-05
1.26476e-05
1.26495e-05
1.26513e-05
1.26531e-05
1.26549e-05
1.26568e-05
1.26586e-05
1.26604e-05
1.26623e-05
1.26641e-05
1.26659e-05
1.26678e-05
1.26696e-05
1.26714e-05
1.26732e-05
1.26751e-05
1.26769e-05
1.26787e-05
1.26806e-05
1.26824e-05
1.26842e-05
1.26861e-05
1.26879e-05
1.26897e-05
1.26915e-05
1.26934e-05
1.26952e-05
1.2697e-05
1.26989e-05
1.27007e-05
1.27025e-05
1.27044e-05
1.27062e-05
1.2708e-05
1.27098e-05
1.27117e-05
1.27135e-05
1.27153e-05
1.27172e-05
1.2719e-05
1.27208e-05
1.27226e-05
1.27245e-05
1.27263e-05
1.27281e-05
1.273e-05
1.27318e-05
1.27336e-05
1.27355e-05
1.27373e-05
1.27391e-05
1.27409e-05
1.27428e-05
1.27446e-05
1.27464e-05
1.27483e-05
1.27501e-05
1.27519e-05
1.27537e-05
1.27556e-05
1.27574e-05
1.27592e-05
1.27611e-05
1.27629e-05
1.27647e-05
1.27665e-05
1.27684e-05
1.27702e-05
1.2772e-05
1.27739e-05
1.27757e-05
1.27775e-05
1.27793e-05
1.27812e-05
1.2783e-05
1.27848e-05
1.27867e-05
1.27885e-05
1.27903e-05
1.27921e-05
1.2794e-05
1.27958e-05
1.27976e-05
1.27995e-05
1.28013e-05
1.28031e-05
1.28049e-05
1.28068e-05
1.28086e-05
1.28104e-05
1.28123e-05
1.28141e-05
1.28159e-05
1.28177e-05
1.28196e-05
1.28214e-05
1.28232e-05
1.28251e-05
1.28269e-05
1.28287e-05
1.28305e-05
1.28324e-05
1.28342e-05
1.2836e-05
1.28379e-05
1.28397e-05
1.28415e-05
1.28433e-05
1.28452e-05
1.2847e-05
1.28488e-05
1.28507e-05
1.28525e-05
1.28543e-05
1.28561e-05
1.2858e-05
1.28598e-05
1.28616e-05
1.28634e-05
1.28653e-05
1.28671e-05
1.28689e-05
1.28708e-05
1.28726e-05
1.28744e-05
1.28762e-05
1.28781e-05
1.28799e-05
1.28817e-05
1.28836e-05
1.28854e-05
1.28872e-05
1.2889e-05
1.28909e-05
1.28927e-05
1.28945e-05
1.28963e-05
1.28982e-05
1.29e-05
1.29018e-05
1.29037e-05
1.29055e-05
1.29073e-05
1.29091e-05
1.2911e-05
1.29128e-05
1.29146e-05
1.29164e-05
1.29183e-05
1.29201e-05
1.29219e-05
1.29238e-05
1.29256e-05
1.29274e-05
1.29292e-05
1.29311e-05
1.29329e-05
1.29347e-05
1.29365e-05
1.29384e-05
1.29402e-05
1.2942e-05
1.29438e-05
1.29457e-05
1.29475e-05
1.29493e-05
1.29512e-05
1.2953e-05
1.29548e-05
1.29566e-05
1.29585e-05
1.29603e-05
1.29621e-05
1.29639e-05
1.29658e-05
1.29676e-05
1.29694e-05
1.29712e-05
1.29731e-05
1.29749e-05
1.29767e-05
1.29786e-05
1.29804e-05
1.29822e-05
1.2984e-05
1.29859e-05
1.29877e-05
1.29895e-05
1.29913e-05
1.29932e-05
1.2995e-05
1.29968e-05
1.29986e-05
1.30005e-05
1.30023e-05
1.30041e-05
1.30059e-05
1.30078e-05
1.30096e-05
1.30114e-05
1.30132e-05
1.30151e-05
1.30169e-05
1.30187e-05
1.30206e-05
1.30224e-05
1.30242e-05
1.3026e-05
1.30279e-05
1.30297e-05
1.30315e-05
1.30333e-05
1.30352e-05
1.3037e-05
1.30388e-05
1.30406e-05
1.30425e-05
1.30443e-05
1.30461e-05
1.30479e-05
1.30498e-05
1.30516e-05
1.30534e-05
1.30552e-05
1.30571e-05
1.30589e-05
1.30607e-05
1.30625e-05
1.30644e-05
1.30662e-05
1.3068e-05
1.30698e-05
1.30717e-05
1.30735e-05
1.30753e-05
1.30771e-05
1.3079e-05
1.30808e-05
1.30826e-05
1.30844e-05
1.30863e-05
1.30881e-05
1.30899e-05
1.30917e-05
1.30936e-05