/*--------------------------------*- C++ -*----------------------------------*\
| =========                 |                                                 |
| \\      /  F ield         | OpenFOAM: The Open Source CFD Toolbox           |
|  \\    /   O peration     | Version:  2.3.1                                 |
|   \\  /    A nd           | Web:      www.OpenFOAM.org                      |
|    \\/     M anipulation  |                                                 |
\*---------------------------------------------------------------------------*/
FoamFile
{
    version     2.0;
    format      ascii;
    class       volVectorField;
    location    "1e-06";
    object      U;
}
// * * * * * * * * * * * * * * * * * * * * * * * * * * * * * * * * * * * * * //

dimensions      [0 1 -1 0 0 0 0];

internalField   nonuniform List<vector> 
10000
(
(0 0 0)
(0 0 0)
(0 0 -3.60086e-13)
(0 0 -3.60122e-13)
(0 0 -7.20315e-13)
(0 0 0)
(0 0 -3.60229e-13)
(0 0 -7.20528e-13)
(0 0 -1.0809e-12)
(0 0 -3.60335e-13)
(0 0 -3.60371e-13)
(0 0 0)
(0 0 3.60442e-13)
(0 0 3.60478e-13)
(0 0 7.21027e-13)
(0 0 2.1633e-12)
(0 0 2.16351e-12)
(0 0 2.16372e-12)
(0 0 2.16394e-12)
(0 0 1.80346e-12)
(0 0 1.08218e-12)
(0 0 1.44306e-12)
(0 0 1.4432e-12)
(0 0 1.80418e-12)
(0 0 1.44349e-12)
(0 0 1.80454e-12)
(0 0 1.44377e-12)
(0 0 1.8049e-12)
(0 0 1.44406e-12)
(0 0 1.4442e-12)
(0 0 1.44435e-12)
(0 0 1.08337e-12)
(0 0 1.08348e-12)
(0 0 1.80598e-12)
(0 0 1.44492e-12)
(0 0 1.44507e-12)
(0 0 1.08391e-12)
(0 0 1.44536e-12)
(0 0 7.22751e-13)
(0 0 3.61412e-13)
(0 0 7.22896e-13)
(0 0 0)
(0 0 7.23041e-13)
(0 0 -3.61557e-13)
(0 0 -3.61593e-13)
(0 0 -3.61629e-13)
(0 0 -7.23331e-13)
(0 0 -1.44681e-12)
(0 0 -7.23476e-13)
(0 0 -7.23549e-13)
(0 0 -1.80905e-12)
(0 0 -1.80924e-12)
(0 0 -1.80942e-12)
(0 0 -1.8096e-12)
(0 0 -1.80978e-12)
(0 0 -2.17196e-12)
(0 0 -2.5342e-12)
(0 0 -2.53446e-12)
(0 0 -2.89682e-12)
(0 0 -2.89711e-12)
(0 0 -2.8974e-12)
(0 0 -2.53548e-12)
(0 0 -2.89799e-12)
(0 0 -3.62285e-12)
(0 0 -2.89857e-12)
(0 0 -2.53651e-12)
(0 0 -2.53677e-12)
(0 0 -2.17459e-12)
(0 0 -1.81234e-12)
(0 0 -2.17503e-12)
(0 0 -1.45017e-12)
(0 0 -7.25157e-13)
(0 0 -7.25231e-13)
(0 0 -3.62652e-13)
(0 0 -3.62689e-13)
(0 0 -3.62726e-13)
(0 0 -3.62763e-13)
(0 0 -7.25599e-13)
(0 0 -3.62837e-13)
(0 0 0)
(0 0 -3.6291e-13)
(0 0 -7.25895e-13)
(0 0 -1.08895e-12)
(0 0 -3.63021e-13)
(0 0 -3.63058e-13)
(0 0 0)
(0 0 3.63133e-13)
(0 0 3.6317e-13)
(0 0 7.26413e-13)
(0 0 1.45298e-12)
(0 0 1.08984e-12)
(0 0 1.08995e-12)
(0 0 1.45342e-12)
(0 0 1.45357e-12)
(0 0 1.81715e-12)
(0 0 1.45387e-12)
(0 0 1.45402e-12)
(0 0 1.45417e-12)
(0 0 1.45431e-12)
(0 0 1.09085e-12)
(0 0 1.09096e-12)
(0 0 1.09107e-12)
(0 0 3.63728e-13)
(0 0 3.63766e-13)
(0 0 3.63803e-13)
(0 0 0)
(0 0 0)
(0 0 -3.63915e-13)
(0 0 -3.63953e-13)
(0 0 -7.27981e-13)
(0 0 -3.64028e-13)
(0 0 -3.64065e-13)
(0 0 0)
(0 0 7.28281e-13)
(0 0 7.28356e-13)
(0 0 7.28432e-13)
(0 0 7.28507e-13)
(0 0 1.09287e-12)
(0 0 3.64329e-13)
(0 0 7.28733e-13)
(0 0 3.64404e-13)
(0 0 7.28884e-13)
(0 0 1.09344e-12)
(0 0 1.09355e-12)
(0 0 3.64555e-13)
(0 0 3.64593e-13)
(0 0 7.29262e-13)
(0 0 7.29338e-13)
(0 0 0)
(0 0 3.64745e-13)
(0 0 3.64783e-13)
(0 0 0)
(0 0 7.29717e-13)
(0 0 0)
(0 0 0)
(0 0 3.64973e-13)
(0 0 1.09503e-12)
(0 0 7.30098e-13)
(0 0 3.65087e-13)
(0 0 3.65125e-13)
(0 0 7.30326e-13)
(0 0 1.0956e-12)
(0 0 7.30479e-13)
(0 0 1.46111e-12)
(0 0 1.82658e-12)
(0 0 2.19212e-12)
(0 0 1.46157e-12)
(0 0 1.09629e-12)
(0 0 1.09641e-12)
(0 0 7.31015e-13)
(0 0 1.46218e-12)
(0 0 1.82792e-12)
(0 0 1.09687e-12)
(0 0 1.46264e-12)
(0 0 1.4628e-12)
(0 0 1.09721e-12)
(0 0 7.31552e-13)
(0 0 7.31629e-13)
(0 0 7.31706e-13)
(0 0 1.09768e-12)
(0 0 1.09779e-12)
(0 0 1.82984e-12)
(0 0 1.09802e-12)
(0 0 1.46418e-12)
(0 0 7.32169e-13)
(0 0 3.66123e-13)
(0 0 3.66162e-13)
(0 0 7.32401e-13)
(0 0 7.32479e-13)
(0 0 7.32556e-13)
(0 0 7.32634e-13)
(0 0 7.32711e-13)
(0 0 1.09918e-12)
(0 0 1.0993e-12)
(0 0 1.09942e-12)
(0 0 7.33022e-13)
(0 0 7.331e-13)
(0 0 7.33178e-13)
(0 0 1.46651e-12)
(0 0 1.83333e-12)
(0 0 1.83353e-12)
(0 0 1.83372e-12)
(0 0 7.33567e-13)
(0 0 0)
(0 0 0)
(0 0 0)
(0 0 0)
(0 0 0)
(0 0 7.34036e-13)
(0 0 0)
(0 0 3.67097e-13)
(0 0 3.67136e-13)
(0 0 3.67175e-13)
(0 0 7.34428e-13)
(0 0 0)
(0 0 7.34586e-13)
(0 0 0)
(0 0 0)
(0 0 0)
(0 0 3.6745e-13)
(0 0 3.6749e-13)
(0 0 3.67529e-13)
(0 0 1.10271e-12)
(0 0 1.47043e-12)
(0 0 1.47059e-12)
(0 0 1.83843e-12)
(0 0 1.83863e-12)
(0 0 1.47106e-12)
(0 0 1.10342e-12)
(0 0 7.3569e-13)
(0 0 3.67885e-13)
(0 0 7.35849e-13)
(0 0 3.67964e-13)
(0 0 -3.68004e-13)
(0 0 -7.36087e-13)
(0 0 -1.10425e-12)
(0 0 -1.47249e-12)
(0 0 -2.9453e-12)
(0 0 -3.31382e-12)
(0 0 -3.31418e-12)
(0 0 -3.68282e-12)
(0 0 -4.41986e-12)
(0 0 -3.31526e-12)
(0 0 -3.68402e-12)
(0 0 -3.31597e-12)
(0 0 -2.94785e-12)
(0 0 -3.31669e-12)
(0 0 -2.94849e-12)
(0 0 -3.31741e-12)
(0 0 -4.05506e-12)
(0 0 -4.42418e-12)
(0 0 -4.42466e-12)
(0 0 -3.68762e-12)
(0 0 -4.05682e-12)
(0 0 -4.05726e-12)
(0 0 -4.42659e-12)
(0 0 -4.05815e-12)
(0 0 -2.9517e-12)
(0 0 -3.32102e-12)
(0 0 -4.05947e-12)
(0 0 -4.05992e-12)
(0 0 -3.69124e-12)
(0 0 -3.69164e-12)
(0 0 -3.69204e-12)
(0 0 -2.58471e-12)
(0 0 -2.21571e-12)
(0 0 -1.4773e-12)
(0 0 -1.84683e-12)
(0 0 -1.47762e-12)
(0 0 -1.47779e-12)
(0 0 -7.38974e-13)
(0 0 -7.39055e-13)
(0 0 -3.69568e-13)
(0 0 -1.10883e-12)
(0 0 -1.84825e-12)
(0 0 -1.47876e-12)
(0 0 -7.39461e-13)
(0 0 -7.39543e-13)
(0 0 -1.10944e-12)
(0 0 -1.47941e-12)
(0 0 -1.47957e-12)
(0 0 -2.2196e-12)
(0 0 -2.21985e-12)
(0 0 -1.85008e-12)
(0 0 -1.48023e-12)
(0 0 -1.48039e-12)
(0 0 -1.85069e-12)
(0 0 -2.22107e-12)
(0 0 -2.22132e-12)
(0 0 -2.22157e-12)
(0 0 -2.22181e-12)
(0 0 -2.22206e-12)
(0 0 -2.59269e-12)
(0 0 -2.9634e-12)
(0 0 -2.96373e-12)
(0 0 -2.96406e-12)
(0 0 -3.70548e-12)
(0 0 -3.70589e-12)
(0 0 -3.33567e-12)
(0 0 -3.33604e-12)
(0 0 -2.9657e-12)
(0 0 -3.33678e-12)
(0 0 -2.59556e-12)
(0 0 -2.59585e-12)
(0 0 -2.22526e-12)
(0 0 -1.48368e-12)
(0 0 -1.48384e-12)
(0 0 -1.48401e-12)
(0 0 -1.85521e-12)
(0 0 -1.85542e-12)
(0 0 -2.22675e-12)
(0 0 -1.85583e-12)
(0 0 -2.22725e-12)
(0 0 -2.97e-12)
(0 0 -3.71291e-12)
(0 0 -3.342e-12)
(0 0 -4.45649e-12)
(0 0 -4.82841e-12)
(0 0 -5.20041e-12)
(0 0 -5.20099e-12)
(0 0 -5.20157e-12)
(0 0 -5.57374e-12)
(0 0 -4.45949e-12)
(0 0 -4.45999e-12)
(0 0 -4.46049e-12)
(0 0 -4.83274e-12)
(0 0 -5.20508e-12)
(0 0 -4.83383e-12)
(0 0 -4.4625e-12)
(0 0 -4.83492e-12)
(0 0 -4.4635e-12)
(0 0 -4.46401e-12)
(0 0 -4.46451e-12)
(0 0 -4.8371e-12)
(0 0 -4.46552e-12)
(0 0 -4.83819e-12)
(0 0 -3.34989e-12)
(0 0 -2.60577e-12)
(0 0 -2.97836e-12)
(0 0 -2.60636e-12)
(0 0 -2.60665e-12)
(0 0 -2.60695e-12)
(0 0 -2.9797e-12)
(0 0 -2.98004e-12)
(0 0 -2.60783e-12)
(0 0 -2.98072e-12)
(0 0 -2.23579e-12)
(0 0 -3.35407e-12)
(0 0 -3.35445e-12)
(0 0 -3.35483e-12)
(0 0 -3.72801e-12)
(0 0 -4.10128e-12)
(0 0 -4.47463e-12)
(0 0 -4.84807e-12)
(0 0 -4.84862e-12)
(0 0 -5.22218e-12)
(0 0 -5.22278e-12)
(0 0 -5.22337e-12)
(0 0 -5.22397e-12)
(0 0 -4.85138e-12)
(0 0 -5.59839e-12)
(0 0 -5.97229e-12)
(0 0 -6.34629e-12)
(0 0 -6.72037e-12)
(0 0 -6.72114e-12)
(0 0 -7.46878e-12)
(0 0 -8.2166e-12)
(0 0 -7.84402e-12)
(0 0 -7.09778e-12)
(0 0 -7.09859e-12)
(0 0 -6.3521e-12)
(0 0 -6.35283e-12)
(0 0 -6.35356e-12)
(0 0 -5.60673e-12)
(0 0 -5.23354e-12)
(0 0 -5.60801e-12)
(0 0 -4.86084e-12)
(0 0 -5.23535e-12)
(0 0 -4.86196e-12)
(0 0 -5.61059e-12)
(0 0 -5.23716e-12)
(0 0 -5.98601e-12)
(0 0 -6.73504e-12)
(0 0 -5.61318e-12)
(0 0 -4.86532e-12)
(0 0 -4.86588e-12)
(0 0 -4.4921e-12)
(0 0 -4.867e-12)
(0 0 -4.49314e-12)
(0 0 -4.49366e-12)
(0 0 -4.49418e-12)
(0 0 -3.74558e-12)
(0 0 -3.74602e-12)
(0 0 -3.3718e-12)
(0 0 -2.62282e-12)
(0 0 -2.99785e-12)
(0 0 -2.9982e-12)
(0 0 -2.99855e-12)
(0 0 -3.37376e-12)
(0 0 -4.12396e-12)
(0 0 -2.9996e-12)
(0 0 -3.37494e-12)
(0 0 -3.37533e-12)
(0 0 -3.37572e-12)
(0 0 -3.00099e-12)
(0 0 -2.62617e-12)
(0 0 -1.87606e-12)
(0 0 -1.50102e-12)
(0 0 -2.25179e-12)
(0 0 -2.25206e-12)
(0 0 -2.25232e-12)
(0 0 -3.00344e-12)
(0 0 -3.00379e-12)
(0 0 -4.1307e-12)
(0 0 -3.75562e-12)
(0 0 -3.75606e-12)
(0 0 -3.7565e-12)
(0 0 -4.50833e-12)
(0 0 -4.13312e-12)
(0 0 -4.1336e-12)
(0 0 -3.75826e-12)
(0 0 -3.7587e-12)
(0 0 -4.13506e-12)
(0 0 -3.75959e-12)
(0 0 -4.51203e-12)
(0 0 -3.76047e-12)
(0 0 -4.137e-12)
(0 0 -4.13749e-12)
(0 0 -4.13798e-12)
(0 0 -3.76224e-12)
(0 0 -3.01015e-12)
(0 0 -3.38682e-12)
(0 0 -2.25814e-12)
(0 0 -3.01121e-12)
(0 0 -3.38801e-12)
(0 0 -3.01192e-12)
(0 0 -3.38882e-12)
(0 0 -3.7658e-12)
(0 0 -3.38962e-12)
(0 0 -3.39002e-12)
(0 0 -3.39042e-12)
(0 0 -3.01406e-12)
(0 0 -3.01442e-12)
(0 0 -3.39162e-12)
(0 0 -3.76892e-12)
(0 0 -4.52324e-12)
(0 0 -4.14679e-12)
(0 0 -4.52431e-12)
(0 0 -4.14778e-12)
(0 0 -4.52539e-12)
(0 0 -4.14877e-12)
(0 0 -4.90367e-12)
(0 0 -4.52701e-12)
(0 0 -4.52754e-12)
(0 0 -5.6601e-12)
(0 0 -5.66078e-12)
(0 0 -5.66145e-12)
(0 0 -5.28465e-12)
(0 0 -4.90777e-12)
(0 0 -4.90835e-12)
(0 0 -4.90894e-12)
(0 0 -4.90953e-12)
(0 0 -4.53241e-12)
(0 0 -4.15521e-12)
(0 0 -4.15571e-12)
(0 0 -4.53404e-12)
(0 0 -4.1567e-12)
(0 0 -4.1572e-12)
(0 0 -3.77973e-12)
(0 0 -3.78018e-12)
(0 0 -3.78063e-12)
(0 0 -4.1592e-12)
(0 0 -4.916e-12)
(0 0 -5.29479e-12)
(0 0 -5.29543e-12)
(0 0 -6.05265e-12)
(0 0 -5.29671e-12)
(0 0 -5.29734e-12)
(0 0 -4.91956e-12)
(0 0 -5.67709e-12)
(0 0 -5.67778e-12)
(0 0 -6.43559e-12)
(0 0 -6.43637e-12)
(0 0 -6.43715e-12)
(0 0 -6.81663e-12)
(0 0 -7.1962e-12)
(0 0 -6.43948e-12)
(0 0 -7.19794e-12)
(0 0 -6.81993e-12)
(0 0 -7.19968e-12)
(0 0 -5.68465e-12)
(0 0 -6.06436e-12)
(0 0 -6.0651e-12)
(0 0 -5.68672e-12)
(0 0 -6.06657e-12)
(0 0 -5.6881e-12)
(0 0 -4.93029e-12)
(0 0 -5.68948e-12)
(0 0 -5.31083e-12)
(0 0 -5.31148e-12)
(0 0 -5.69156e-12)
(0 0 -6.07174e-12)
(0 0 -5.69295e-12)
(0 0 -5.69364e-12)
(0 0 -5.69434e-12)
(0 0 -6.0747e-12)
(0 0 -5.69573e-12)
(0 0 -5.69642e-12)
(0 0 -5.69712e-12)
(0 0 -6.07767e-12)
(0 0 -6.07841e-12)
(0 0 -6.4591e-12)
(0 0 -7.21988e-12)
(0 0 -7.22077e-12)
(0 0 -6.84157e-12)
(0 0 -7.22254e-12)
(0 0 -7.22342e-12)
(0 0 -6.84408e-12)
(0 0 -6.84492e-12)
(0 0 -6.84791e-12)
(0 0 -6.46624e-12)
(0 0 -6.08662e-12)
(0 0 -6.08737e-12)
(0 0 -5.70761e-12)
(0 0 -6.08887e-12)
(0 0 -6.08962e-12)
(0 0 -6.47102e-12)
(0 0 -6.47182e-12)
(0 0 -6.85336e-12)
(0 0 -6.47341e-12)
(0 0 -6.85505e-12)
(0 0 -6.8559e-12)
(0 0 -7.23768e-12)
(0 0 -7.23857e-12)
(0 0 -8.00152e-12)
(0 0 -7.24036e-12)
(0 0 -7.24126e-12)
(0 0 -6.47982e-12)
(0 0 -6.09941e-12)
(0 0 -6.48143e-12)
(0 0 -6.48224e-12)
(0 0 -5.72033e-12)
(0 0 -5.33964e-12)
(0 0 -4.95885e-12)
(0 0 -4.95947e-12)
(0 0 -5.34163e-12)
(0 0 -5.72389e-12)
(0 0 -6.10624e-12)
(0 0 -6.107e-12)
(0 0 -6.4895e-12)
(0 0 -6.49031e-12)
(0 0 -6.49112e-12)
(0 0 -7.25568e-12)
(0 0 -7.25659e-12)
(0 0 -6.87552e-12)
(0 0 -7.2584e-12)
(0 0 -7.64138e-12)
(0 0 -8.02445e-12)
(0 0 -7.26113e-12)
(0 0 -7.64425e-12)
(0 0 -6.49843e-12)
(0 0 -6.49924e-12)
(0 0 -6.88241e-12)
(0 0 -6.50087e-12)
(0 0 -6.11923e-12)
(0 0 -5.355e-12)
(0 0 -4.97313e-12)
(0 0 -5.35635e-12)
(0 0 -5.73967e-12)
(0 0 -6.12308e-12)
(0 0 -5.74111e-12)
(0 0 -5.74184e-12)
(0 0 -5.35972e-12)
(0 0 -4.97751e-12)
(0 0 -5.74401e-12)
(0 0 -4.97877e-12)
(0 0 -5.36243e-12)
(0 0 -4.21387e-12)
(0 0 -3.83127e-12)
(0 0 -3.83176e-12)
(0 0 -4.21547e-12)
(0 0 -3.83273e-12)
(0 0 -4.21653e-12)
(0 0 -4.21707e-12)
(0 0 -3.45077e-12)
(0 0 -3.83467e-12)
(0 0 -4.21867e-12)
(0 0 -4.21921e-12)
(0 0 -4.98697e-12)
(0 0 -4.60394e-12)
(0 0 -4.98824e-12)
(0 0 -4.22135e-12)
(0 0 -4.22189e-12)
(0 0 -3.45471e-12)
(0 0 -3.83906e-12)
(0 0 -3.07164e-12)
(0 0 -2.68803e-12)
(0 0 -3.07242e-12)
(0 0 -2.68871e-12)
(0 0 -3.07321e-12)
(0 0 -3.0736e-12)
(0 0 -3.07399e-12)
(0 0 -3.07439e-12)
(0 0 -2.30608e-12)
(0 0 -2.69078e-12)
(0 0 -1.92223e-12)
(0 0 -1.92248e-12)
(0 0 -7.69089e-13)
(0 0 -1.15378e-12)
(0 0 -1.15393e-12)
(0 0 -7.69385e-13)
(0 0 -1.92371e-12)
(0 0 -1.53916e-12)
(0 0 -2.30904e-12)
(0 0 -2.30934e-12)
(0 0 -3.46446e-12)
(0 0 -3.4649e-12)
(0 0 -3.08031e-12)
(0 0 -3.4658e-12)
(0 0 -3.0811e-12)
(0 0 -3.46669e-12)
(0 0 -3.46714e-12)
(0 0 -2.69701e-12)
(0 0 -3.0827e-12)
(0 0 -1.92693e-12)
(0 0 -1.54175e-12)
(0 0 -1.54195e-12)
(0 0 -7.71073e-13)
(0 0 -7.71173e-13)
(0 0 -7.71273e-13)
(0 0 0)
(0 0 -3.85736e-13)
(0 0 0)
(0 0 3.85836e-13)
(0 0 0)
(0 0 -3.85937e-13)
(0 0 7.71974e-13)
(0 0 3.86037e-13)
(0 0 7.72175e-13)
(0 0 1.15841e-12)
(0 0 3.86188e-13)
(0 0 0)
(0 0 3.86289e-13)
(0 0 7.72678e-13)
(0 0 1.15917e-12)
(0 0 1.15932e-12)
(0 0 1.93245e-12)
(0 0 1.9327e-12)
(0 0 1.15977e-12)
(0 0 1.15993e-12)
(0 0 3.86693e-13)
(0 0 7.73487e-13)
(0 0 7.73588e-13)
(0 0 1.16053e-12)
(0 0 7.73791e-13)
(0 0 3.86946e-13)
(0 0 3.86997e-13)
(0 0 3.87048e-13)
(0 0 0)
(0 0 -3.8715e-13)
(0 0 -3.87201e-13)
(0 0 -3.87252e-13)
(0 0 0)
(0 0 0)
(0 0 0)
(0 0 -3.87456e-13)
(0 0 -7.75014e-13)
(0 0 -7.75116e-13)
(0 0 -7.75218e-13)
(0 0 -7.75321e-13)
(0 0 0)
(0 0 0)
(0 0 -3.87814e-13)
(0 0 0)
(0 0 0)
(0 0 -3.87968e-13)
(0 0 -3.8802e-13)
(0 0 0)
(0 0 7.76246e-13)
(0 0 3.88174e-13)
(0 0 1.16468e-12)
(0 0 1.55311e-12)
(0 0 1.16499e-12)
(0 0 1.55352e-12)
(0 0 1.55373e-12)
(0 0 1.16545e-12)
(0 0 1.94268e-12)
(0 0 2.33153e-12)
(0 0 2.33184e-12)
(0 0 1.55477e-12)
(0 0 1.55497e-12)
(0 0 7.77591e-13)
(0 0 -3.88848e-13)
(0 0 -1.1667e-12)
(0 0 -1.16685e-12)
(0 0 -1.55601e-12)
(0 0 -1.16717e-12)
(0 0 -7.78216e-13)
(0 0 -1.16748e-12)
(0 0 -1.55685e-12)
(0 0 -7.78529e-13)
(0 0 -7.78634e-13)
(0 0 -7.78738e-13)
(0 0 -7.78843e-13)
(0 0 -1.16842e-12)
(0 0 -1.16858e-12)
(0 0 -1.94789e-12)
(0 0 -1.16889e-12)
(0 0 -1.16905e-12)
(0 0 -1.16921e-12)
(0 0 -7.79577e-13)
(0 0 -3.89841e-13)
(0 0 -3.89894e-13)
(0 0 -7.79893e-13)
(0 0 -1.17e-12)
(0 0 -1.17016e-12)
(0 0 -7.8021e-13)
(0 0 -7.80315e-13)
(0 0 -1.17063e-12)
(0 0 -1.95132e-12)
(0 0 -2.3419e-12)
(0 0 -1.17111e-12)
(0 0 -1.17127e-12)
(0 0 -1.5619e-12)
(0 0 -7.81057e-13)
(0 0 -1.56233e-12)
(0 0 -7.81269e-13)
(0 0 -1.56275e-12)
(0 0 -1.17222e-12)
(0 0 -1.56318e-12)
(0 0 -2.34508e-12)
(0 0 -1.1727e-12)
(0 0 -1.56382e-12)
(0 0 -1.56403e-12)
(0 0 -1.56424e-12)
(0 0 -1.56446e-12)
(0 0 -1.95584e-12)
(0 0 -2.34733e-12)
(0 0 -1.95637e-12)
(0 0 -1.95664e-12)
(0 0 -1.56553e-12)
(0 0 -1.17431e-12)
(0 0 -7.82978e-13)
(0 0 -7.83085e-13)
(0 0 -3.91596e-13)
(0 0 7.833e-13)
(0 0 1.17511e-12)
(0 0 1.17527e-12)
(0 0 1.17544e-12)
(0 0 1.56746e-12)
(0 0 1.56768e-12)
(0 0 1.17592e-12)
(0 0 1.17608e-12)
(0 0 1.17624e-12)
(0 0 1.17641e-12)
(0 0 3.9219e-13)
(0 0 3.92244e-13)
(0 0 0)
(0 0 -3.92352e-13)
(0 0 -3.92407e-13)
(0 0 0)
(0 0 0)
(0 0 3.9257e-13)
(0 0 7.85248e-13)
(0 0 7.85357e-13)
(0 0 1.1782e-12)
(0 0 7.85575e-13)
(0 0 1.17853e-12)
(0 0 1.57159e-12)
(0 0 1.17885e-12)
(0 0 1.17902e-12)
(0 0 1.17918e-12)
(0 0 1.17935e-12)
(0 0 3.9317e-13)
(0 0 3.93225e-13)
(0 0 1.17984e-12)
(0 0 1.57334e-12)
(0 0 2.36034e-12)
(0 0 2.36067e-12)
(0 0 2.361e-12)
(0 0 1.96777e-12)
(0 0 1.57444e-12)
(0 0 1.96832e-12)
(0 0 1.57488e-12)
(0 0 1.5751e-12)
(0 0 1.57532e-12)
(0 0 1.57554e-12)
(0 0 1.57576e-12)
(0 0 1.96998e-12)
(0 0 1.5762e-12)
(0 0 1.57643e-12)
(0 0 1.18249e-12)
(0 0 7.88435e-13)
(0 0 7.88546e-13)
(0 0 3.94328e-13)
(0 0 3.94384e-13)
(0 0 0)
(0 0 3.94495e-13)
(0 0 3.94551e-13)
(0 0 0)
(0 0 0)
(0 0 0)
(0 0 0)
(0 0 0)
(0 0 -7.89771e-13)
(0 0 0)
(0 0 -3.94997e-13)
(0 0 -1.18516e-12)
(0 0 -7.90219e-13)
(0 0 -1.1855e-12)
(0 0 -1.58089e-12)
(0 0 -1.97639e-12)
(0 0 -2.372e-12)
(0 0 -2.37234e-12)
(0 0 -2.37268e-12)
(0 0 -2.76852e-12)
(0 0 -2.37335e-12)
(0 0 -2.37369e-12)
(0 0 -2.7697e-12)
(0 0 -3.16583e-12)
(0 0 -3.95785e-12)
(0 0 -2.77089e-12)
(0 0 -2.77129e-12)
(0 0 -2.37573e-12)
(0 0 -3.16809e-12)
(0 0 -3.56461e-12)
(0 0 -3.96125e-12)
(0 0 -4.35799e-12)
(0 0 -3.1699e-12)
(0 0 -3.17036e-12)
(0 0 -2.77446e-12)
(0 0 -3.17127e-12)
(0 0 -3.17172e-12)
(0 0 -2.77566e-12)
(0 0 -3.17264e-12)
(0 0 -3.56973e-12)
(0 0 -3.57024e-12)
(0 0 -3.96751e-12)
(0 0 -3.96808e-12)
(0 0 -3.57179e-12)
(0 0 -3.17538e-12)
(0 0 -2.77886e-12)
(0 0 -2.38222e-12)
(0 0 -2.38257e-12)
(0 0 -1.98576e-12)
(0 0 -1.98605e-12)
(0 0 -2.78087e-12)
(0 0 -2.38395e-12)
(0 0 -2.78167e-12)
(0 0 -2.78208e-12)
(0 0 -3.17998e-12)
(0 0 -3.18044e-12)
(0 0 -3.1809e-12)
(0 0 -3.9767e-12)
(0 0 -4.37501e-12)
(0 0 -3.58007e-12)
(0 0 -3.97844e-12)
(0 0 -3.58111e-12)
(0 0 -3.9796e-12)
(0 0 -2.78612e-12)
(0 0 -3.58268e-12)
(0 0 -3.18507e-12)
(0 0 -2.38915e-12)
(0 0 -2.3895e-12)
(0 0 -1.59323e-12)
(0 0 -1.1951e-12)
(0 0 -1.5937e-12)
(0 0 -1.59393e-12)
(0 0 -2.78979e-12)
(0 0 -2.3916e-12)
(0 0 -3.18926e-12)
(0 0 -2.79101e-12)
(0 0 -3.1902e-12)
(0 0 -2.393e-12)
(0 0 -3.59003e-12)
(0 0 -3.98951e-12)
(0 0 -4.3891e-12)
(0 0 -4.38975e-12)
(0 0 -3.99127e-12)
(0 0 -4.79023e-12)
(0 0 -4.39169e-12)
(0 0 -3.99303e-12)
(0 0 -3.99362e-12)
(0 0 -3.59479e-12)
(0 0 -3.19584e-12)
(0 0 -3.59585e-12)
(0 0 -3.59638e-12)
(0 0 -3.59691e-12)
(0 0 -3.59745e-12)
(0 0 -3.59798e-12)
(0 0 -3.59851e-12)
(0 0 -3.19915e-12)
(0 0 -2.79967e-12)
(0 0 -2.40008e-12)
(0 0 -2.8005e-12)
(0 0 -2.80092e-12)
(0 0 -2.80134e-12)
(0 0 -3.202e-12)
(0 0 -3.60279e-12)
(0 0 -3.20296e-12)
(0 0 -3.60386e-12)
(0 0 -4.00489e-12)
(0 0 -3.20439e-12)
(0 0 -3.60548e-12)
(0 0 -3.20535e-12)
(0 0 -3.60655e-12)
(0 0 -4.00788e-12)
(0 0 -4.40933e-12)
(0 0 -4.40999e-12)
(0 0 -4.00968e-12)
(0 0 -3.60925e-12)
(0 0 -4.01088e-12)
(0 0 -4.01148e-12)
(0 0 -4.41329e-12)
(0 0 -4.01268e-12)
(0 0 -3.61196e-12)
(0 0 -3.21111e-12)
(0 0 -4.41594e-12)
(0 0 -4.41661e-12)
(0 0 -4.0157e-12)
(0 0 -4.41794e-12)
(0 0 -4.4186e-12)
(0 0 -4.82102e-12)
(0 0 -4.82175e-12)
(0 0 -4.82247e-12)
(0 0 -4.01934e-12)
(0 0 -4.01994e-12)
(0 0 -4.02055e-12)
(0 0 -4.42327e-12)
(0 0 -4.42394e-12)
(0 0 -4.42461e-12)
(0 0 -4.82758e-12)
(0 0 -4.42595e-12)
(0 0 -4.82904e-12)
(0 0 -4.4273e-12)
(0 0 -5.23305e-12)
(0 0 -4.02604e-12)
(0 0 -4.42931e-12)
(0 0 -4.42999e-12)
(0 0 -4.83345e-12)
(0 0 -4.83418e-12)
(0 0 -5.23783e-12)
(0 0 -5.23863e-12)
(0 0 -4.83639e-12)
(0 0 -4.43404e-12)
(0 0 -4.83787e-12)
(0 0 -6.04826e-12)
(0 0 -6.45247e-12)
(0 0 -6.85679e-12)
(0 0 -6.45444e-12)
(0 0 -7.26236e-12)
(0 0 -7.26347e-12)
(0 0 -6.86099e-12)
(0 0 -7.26569e-12)
(0 0 -7.26681e-12)
(0 0 -7.26792e-12)
(0 0 -6.8652e-12)
(0 0 -6.05846e-12)
(0 0 -6.0594e-12)
(0 0 -6.46435e-12)
(0 0 -6.06126e-12)
(0 0 -6.06219e-12)
(0 0 -6.06313e-12)
(0 0 -5.25552e-12)
(0 0 -5.25633e-12)
(0 0 -5.25714e-12)
(0 0 -4.8535e-12)
(0 0 -4.04521e-12)
(0 0 -4.45041e-12)
(0 0 -4.4511e-12)
(0 0 -4.8565e-12)
(0 0 -4.45248e-12)
(0 0 -4.04834e-12)
(0 0 -4.85876e-12)
(0 0 -4.85951e-12)
(0 0 -5.67031e-12)
(0 0 -5.2661e-12)
(0 0 -5.26692e-12)
(0 0 -5.67295e-12)
(0 0 -5.67383e-12)
(0 0 -6.08005e-12)
(0 0 -6.4864e-12)
(0 0 -6.48741e-12)
(0 0 -6.0829e-12)
(0 0 -6.89502e-12)
(0 0 -6.8961e-12)
(0 0 -7.30289e-12)
(0 0 -7.30403e-12)
(0 0 -6.08765e-12)
(0 0 -6.0886e-12)
(0 0 -6.08955e-12)
(0 0 -5.68447e-12)
(0 0 -5.27926e-12)
(0 0 -5.28009e-12)
(0 0 -4.46847e-12)
(0 0 -4.46917e-12)
(0 0 -4.87623e-12)
(0 0 -4.47058e-12)
(0 0 -5.28424e-12)
(0 0 -6.09816e-12)
(0 0 -6.09912e-12)
(0 0 -5.69341e-12)
(0 0 -6.10104e-12)
(0 0 -6.102e-12)
(0 0 -5.6961e-12)
(0 0 -4.88314e-12)
(0 0 -4.06993e-12)
(0 0 -4.47763e-12)
(0 0 -4.07121e-12)
(0 0 -4.07186e-12)
(0 0 -4.47975e-12)
(0 0 -3.66583e-12)
(0 0 -3.25903e-12)
(0 0 -3.66699e-12)
(0 0 -2.44505e-12)
(0 0 -2.44544e-12)
(0 0 -1.63055e-12)
(0 0 -1.63081e-12)
(0 0 -8.15534e-13)
(0 0 -1.63264e-12)
(0 0 -1.22369e-12)
(0 0 -8.15924e-13)
(0 0 -1.63211e-12)
(0 0 -1.63237e-12)
(0 0 -1.22447e-12)
(0 0 -1.22467e-12)
(0 0 -4.08288e-13)
(0 0 -1.22506e-12)
(0 0 -1.22525e-12)
(0 0 -1.22545e-12)
(0 0 -1.22565e-12)
(0 0 -8.17229e-13)
(0 0 -1.63472e-12)
(0 0 -1.63498e-12)
(0 0 -2.04405e-12)
(0 0 -1.63551e-12)
(0 0 -8.17884e-13)
(0 0 -1.63603e-12)
(0 0 -4.09074e-13)
(0 0 0)
(0 0 0)
(0 0 -4.09271e-13)
(0 0 -8.18674e-13)
(0 0 0)
(0 0 0)
(0 0 4.09535e-13)
(0 0 1.2288e-12)
(0 0 2.04834e-12)
(0 0 2.04867e-12)
(0 0 1.6392e-12)
(0 0 1.63947e-12)
(0 0 1.2298e-12)
(0 0 1.64e-12)
(0 0 1.64026e-12)
(0 0 2.05066e-12)
(0 0 1.6408e-12)
(0 0 8.20531e-13)
(0 0 1.64133e-12)
(0 0 1.6416e-12)
(0 0 2.05233e-12)
(0 0 2.4632e-12)
(0 0 3.6954e-12)
(0 0 3.696e-12)
(0 0 3.6966e-12)
(0 0 4.51881e-12)
(0 0 5.34128e-12)
(0 0 5.34215e-12)
(0 0 5.34303e-12)
(0 0 5.75497e-12)
(0 0 5.75591e-12)
(0 0 5.34565e-12)
(0 0 5.7578e-12)
(0 0 5.3474e-12)
(0 0 5.34828e-12)
(0 0 4.93768e-12)
(0 0 4.52695e-12)
(0 0 4.5277e-12)
(0 0 4.11677e-12)
(0 0 3.29396e-12)
(0 0 3.2945e-12)
(0 0 3.70692e-12)
(0 0 4.53143e-12)
(0 0 3.70814e-12)
(0 0 4.53292e-12)
(0 0 4.53367e-12)
(0 0 3.70998e-12)
(0 0 3.2983e-12)
(0 0 2.88649e-12)
(0 0 3.71182e-12)
(0 0 4.12493e-12)
(0 0 4.53817e-12)
(0 0 4.95156e-12)
(0 0 5.36507e-12)
(0 0 5.77873e-12)
(0 0 6.19253e-12)
(0 0 5.78065e-12)
(0 0 6.19459e-12)
(0 0 7.0217e-12)
(0 0 7.84909e-12)
(0 0 8.26357e-12)
(0 0 9.09144e-12)
(0 0 9.50628e-12)
(0 0 9.50786e-12)
(0 0 9.096e-12)
(0 0 9.09752e-12)
(0 0 8.27185e-12)
(0 0 7.44591e-12)
(0 0 6.6197e-12)
(0 0 6.207e-12)
(0 0 6.62191e-12)
(0 0 6.20908e-12)
(0 0 5.79612e-12)
(0 0 5.38301e-12)
(0 0 5.79806e-12)
(0 0 4.9706e-12)
(0 0 5.38573e-12)
(0 0 5.38663e-12)
(0 0 6.21639e-12)
(0 0 5.80294e-12)
(0 0 6.63305e-12)
(0 0 6.63417e-12)
(0 0 6.22059e-12)
(0 0 6.63641e-12)
(0 0 7.05238e-12)
(0 0 6.22374e-12)
(0 0 5.80981e-12)
(0 0 5.81079e-12)
(0 0 5.39665e-12)
(0 0 5.39756e-12)
(0 0 5.81374e-12)
(0 0 5.81473e-12)
(0 0 6.23112e-12)
(0 0 6.23218e-12)
(0 0 5.81769e-12)
(0 0 5.40306e-12)
(0 0 4.5726e-12)
(0 0 4.98914e-12)
(0 0 5.40582e-12)
(0 0 5.40674e-12)
(0 0 5.40767e-12)
(0 0 5.82463e-12)
(0 0 5.82563e-12)
(0 0 6.24281e-12)
(0 0 6.66014e-12)
(0 0 6.66128e-12)
(0 0 6.24602e-12)
(0 0 6.66356e-12)
(0 0 7.49779e-12)
(0 0 7.49907e-12)
(0 0 7.91705e-12)
(0 0 8.75192e-12)
(0 0 8.75342e-12)
(0 0 9.17183e-12)
(0 0 8.75644e-12)
(0 0 8.75794e-12)
(0 0 8.34233e-12)
(0 0 8.34377e-12)
(0 0 7.92795e-12)
(0 0 7.92932e-12)
(0 0 7.93069e-12)
(0 0 7.51458e-12)
(0 0 7.51588e-12)
(0 0 7.51718e-12)
(0 0 7.10078e-12)
(0 0 7.10201e-12)
(0 0 6.68541e-12)
(0 0 7.52239e-12)
(0 0 7.52369e-12)
(0 0 7.525e-12)
(0 0 8.78069e-12)
(0 0 9.20041e-12)
(0 0 9.20201e-12)
(0 0 9.20361e-12)
(0 0 9.20522e-12)
(0 0 9.62531e-12)
(0 0 9.20842e-12)
(0 0 9.62867e-12)
(0 0 9.21164e-12)
(0 0 8.79446e-12)
(0 0 8.796e-12)
(0 0 8.79754e-12)
(0 0 9.63708e-12)
(0 0 1.00578e-11)
(0 0 9.64046e-12)
(0 0 1.04806e-11)
(0 0 1.04824e-11)
(0 0 1.04843e-11)
(0 0 1.00667e-11)
(0 0 1.0488e-11)
(0 0 1.04898e-11)
(0 0 1.0072e-11)
(0 0 9.65401e-12)
(0 0 8.81608e-12)
(0 0 8.81764e-12)
(0 0 9.65911e-12)
(0 0 8.82075e-12)
(0 0 8.8223e-12)
(0 0 9.24405e-12)
(0 0 9.66594e-12)
(0 0 9.24732e-12)
(0 0 9.24895e-12)
(0 0 8.83011e-12)
(0 0 8.83167e-12)
(0 0 8.83324e-12)
(0 0 7.9934e-12)
(0 0 7.99482e-12)
(0 0 7.99624e-12)
(0 0 8.83952e-12)
(0 0 8.84109e-12)
(0 0 8.42158e-12)
(0 0 8.00193e-12)
(0 0 7.58212e-12)
(0 0 7.16217e-12)
(0 0 6.32069e-12)
(0 0 5.90036e-12)
(0 0 5.90142e-12)
(0 0 6.32408e-12)
(0 0 6.74689e-12)
(0 0 6.32634e-12)
(0 0 7.17114e-12)
(0 0 7.59433e-12)
(0 0 7.17371e-12)
(0 0 7.17499e-12)
(0 0 6.75415e-12)
(0 0 6.75536e-12)
(0 0 7.17886e-12)
(0 0 7.18015e-12)
(0 0 7.18144e-12)
(0 0 7.18274e-12)
(0 0 7.60662e-12)
(0 0 7.60799e-12)
(0 0 7.18662e-12)
(0 0 7.61074e-12)
(0 0 7.61211e-12)
(0 0 6.76755e-12)
(0 0 7.61487e-12)
(0 0 7.61624e-12)
(0 0 7.61762e-12)
(0 0 7.19573e-12)
(0 0 6.77368e-12)
(0 0 6.7749e-12)
(0 0 6.35263e-12)
(0 0 6.35378e-12)
(0 0 7.20226e-12)
(0 0 6.77983e-12)
(0 0 7.20488e-12)
(0 0 7.20619e-12)
(0 0 6.78353e-12)
(0 0 6.78477e-12)
(0 0 6.36188e-12)
(0 0 6.78725e-12)
(0 0 6.36421e-12)
(0 0 6.78973e-12)
(0 0 7.21541e-12)
(0 0 7.21673e-12)
(0 0 6.79346e-12)
(0 0 8.06871e-12)
(0 0 8.07019e-12)
(0 0 8.07167e-12)
(0 0 8.92296e-12)
(0 0 8.9246e-12)
(0 0 9.3513e-12)
(0 0 9.35302e-12)
(0 0 8.92952e-12)
(0 0 8.93117e-12)
(0 0 7.6567e-12)
(0 0 7.65811e-12)
(0 0 7.23399e-12)
(0 0 7.23533e-12)
(0 0 7.23667e-12)
(0 0 6.81224e-12)
(0 0 6.8135e-12)
(0 0 6.81476e-12)
(0 0 7.24202e-12)
(0 0 6.81729e-12)
(0 0 6.81855e-12)
(0 0 6.39358e-12)
(0 0 6.39476e-12)
(0 0 5.96956e-12)
(0 0 7.25009e-12)
(0 0 7.25144e-12)
(0 0 7.67943e-12)
(0 0 7.25414e-12)
(0 0 6.40191e-12)
(0 0 6.4031e-12)
(0 0 6.4043e-12)
(0 0 5.55143e-12)
(0 0 5.12535e-12)
(0 0 5.12631e-12)
(0 0 5.12727e-12)
(0 0 3.84617e-12)
(0 0 4.27433e-12)
(0 0 4.70264e-12)
(0 0 4.27593e-12)
(0 0 4.70441e-12)
(0 0 5.13304e-12)
(0 0 3.85051e-12)
(0 0 3.42332e-12)
(0 0 3.85196e-12)
(0 0 3.42461e-12)
(0 0 3.42525e-12)
(0 0 3.85413e-12)
(0 0 4.28318e-12)
(0 0 4.28399e-12)
(0 0 4.71328e-12)
(0 0 4.28561e-12)
(0 0 5.1437e-12)
(0 0 5.14468e-12)
(0 0 4.71685e-12)
(0 0 3.85997e-12)
(0 0 4.28967e-12)
(0 0 3.43239e-12)
(0 0 3.43304e-12)
(0 0 3.8629e-12)
(0 0 3.43434e-12)
(0 0 2.57625e-12)
(0 0 2.57674e-12)
(0 0 1.71815e-12)
(0 0 2.1481e-12)
(0 0 1.28911e-12)
(0 0 1.28935e-12)
(0 0 1.2896e-12)
(0 0 1.28985e-12)
(0 0 1.72012e-12)
(0 0 2.15057e-12)
(0 0 2.15098e-12)
(0 0 1.72111e-12)
(0 0 1.72144e-12)
(0 0 1.72177e-12)
(0 0 2.15263e-12)
(0 0 2.58365e-12)
(0 0 3.44553e-12)
(0 0 3.01542e-12)
(0 0 2.15429e-12)
(0 0 2.1547e-12)
(0 0 2.58614e-12)
(0 0 3.01775e-12)
(0 0 2.58714e-12)
(0 0 2.15637e-12)
(0 0 8.62713e-13)
(0 0 4.3144e-13)
(0 0 8.63047e-13)
(0 0 8.63214e-13)
(0 0 1.29507e-12)
(0 0 1.29532e-12)
(0 0 1.29557e-12)
(0 0 8.63884e-13)
(0 0 4.32026e-13)
(0 0 4.3211e-13)
(0 0 0)
(0 0 -4.32278e-13)
(0 0 4.32363e-13)
(0 0 4.32447e-13)
(0 0 8.65062e-13)
(0 0 4.32616e-13)
(0 0 4.327e-13)
(0 0 4.32785e-13)
(0 0 -4.32869e-13)
(0 0 -4.32954e-13)
(0 0 0)
(0 0 4.33124e-13)
(0 0 0)
(0 0 4.33294e-13)
(0 0 4.33379e-13)
(0 0 0)
(0 0 -8.67099e-13)
(0 0 -4.33635e-13)
(0 0 -1.73488e-12)
(0 0 -8.67611e-13)
(0 0 -1.30167e-12)
(0 0 -1.30193e-12)
(0 0 -1.73625e-12)
(0 0 -2.17074e-12)
(0 0 -2.60541e-12)
(0 0 -2.60592e-12)
(0 0 -2.17203e-12)
(0 0 -1.73797e-12)
(0 0 -2.60747e-12)
(0 0 -2.60799e-12)
(0 0 -3.04326e-12)
(0 0 -3.4787e-12)
(0 0 -3.47939e-12)
(0 0 -3.48008e-12)
(0 0 -3.04568e-12)
(0 0 -2.17592e-12)
(0 0 -2.17635e-12)
(0 0 -2.17679e-12)
(0 0 -2.61266e-12)
(0 0 -2.17766e-12)
(0 0 -1.74247e-12)
(0 0 -2.17853e-12)
(0 0 -1.30738e-12)
(0 0 -1.74352e-12)
(0 0 -4.35967e-13)
(0 0 -4.36055e-13)
(0 0 -8.72284e-13)
(0 0 -1.30869e-12)
(0 0 -1.74527e-12)
(0 0 -8.7281e-13)
(0 0 -1.30948e-12)
(0 0 -1.30974e-12)
(0 0 -1.31001e-12)
(0 0 -1.74703e-12)
(0 0 -1.31054e-12)
(0 0 -1.3108e-12)
(0 0 -1.74809e-12)
(0 0 -2.18555e-12)
(0 0 -2.18599e-12)
(0 0 -1.31186e-12)
(0 0 -8.74751e-13)
(0 0 -4.37464e-13)
(0 0 -4.37553e-13)
(0 0 -8.75284e-13)
(0 0 -8.75462e-13)
(0 0 -8.7564e-13)
(0 0 -1.31373e-12)
(0 0 -1.75199e-12)
(0 0 -1.75235e-12)
(0 0 -2.19088e-12)
(0 0 -1.75306e-12)
(0 0 -2.19178e-12)
(0 0 -1.75378e-12)
(0 0 -2.19267e-12)
(0 0 -2.19312e-12)
(0 0 -2.19357e-12)
(0 0 -2.19402e-12)
(0 0 -3.07226e-12)
(0 0 -3.07289e-12)
(0 0 -3.07352e-12)
(0 0 -1.75666e-12)
(0 0 -1.31776e-12)
(0 0 -1.75738e-12)
(0 0 -2.63661e-12)
(0 0 -1.7581e-12)
(0 0 -1.75847e-12)
(0 0 -2.19854e-12)
(0 0 -3.07859e-12)
(0 0 -3.07922e-12)
(0 0 -2.63988e-12)
(0 0 -3.52057e-12)
(0 0 -3.96146e-12)
(0 0 -3.08177e-12)
(0 0 -3.52276e-12)
(0 0 -2.20218e-12)
(0 0 -2.64316e-12)
(0 0 -2.64371e-12)
(0 0 -2.20355e-12)
(0 0 -2.20401e-12)
(0 0 -2.20447e-12)
(0 0 -1.76394e-12)
(0 0 -1.76431e-12)
(0 0 -1.32351e-12)
(0 0 -8.82524e-13)
(0 0 -4.41354e-13)
(0 0 -1.32434e-12)
(0 0 -1.76615e-12)
(0 0 -2.20816e-12)
(0 0 -2.20862e-12)
(0 0 -1.76727e-12)
(0 0 -2.20954e-12)
(0 0 -1.76801e-12)
(0 0 -1.32628e-12)
(0 0 -2.65313e-12)
(0 0 -2.2114e-12)
(0 0 -2.21187e-12)
(0 0 -1.3274e-12)
(0 0 -8.85121e-13)
(0 0 -1.77061e-12)
(0 0 -1.32824e-12)
(0 0 -1.32852e-12)
(0 0 -1.3288e-12)
(0 0 -1.32908e-12)
(0 0 -4.43122e-13)
(0 0 -4.43216e-13)
(0 0 -4.4331e-13)
(0 0 -8.86808e-13)
(0 0 -8.86996e-13)
(0 0 -4.43592e-13)
(0 0 0)
(0 0 4.43781e-13)
(0 0 4.43875e-13)
(0 0 -4.4397e-13)
(0 0 0)
(0 0 -4.44159e-13)
(0 0 0)
(0 0 4.44349e-13)
(0 0 8.88889e-13)
(0 0 4.44539e-13)
(0 0 4.44635e-13)
(0 0 8.8946e-13)
(0 0 1.33448e-12)
(0 0 8.89842e-13)
(0 0 8.90033e-13)
(0 0 4.45112e-13)
(0 0 -4.45208e-13)
(0 0 0)
(0 0 -8.90799e-13)
(0 0 -4.45496e-13)
(0 0 -4.45592e-13)
(0 0 -1.33706e-12)
(0 0 -8.91568e-13)
(0 0 -4.45881e-13)
(0 0 -4.45977e-13)
(0 0 4.46074e-13)
(0 0 4.4617e-13)
(0 0 0)
(0 0 0)
(0 0 -4.46461e-13)
(0 0 -8.93116e-13)
(0 0 -4.46655e-13)
(0 0 0)
(0 0 4.46849e-13)
(0 0 0)
(0 0 -4.47044e-13)
(0 0 -8.94284e-13)
(0 0 -1.34172e-12)
(0 0 -8.94674e-13)
(0 0 -1.34231e-12)
(0 0 -8.95065e-13)
(0 0 -1.34513e-12)
(0 0 -1.79091e-12)
(0 0 -1.79131e-12)
(0 0 -2.68755e-12)
(0 0 -3.13617e-12)
(0 0 -3.13686e-12)
(0 0 -3.58577e-12)
(0 0 -3.58656e-12)
(0 0 -4.48419e-12)
(0 0 -3.58814e-12)
(0 0 -3.14032e-12)
(0 0 -3.14101e-12)
(0 0 -3.1417e-12)
(0 0 -2.24457e-12)
(0 0 -2.69408e-12)
(0 0 -2.24556e-12)
(0 0 -3.5937e-12)
(0 0 -3.14518e-12)
(0 0 -3.14588e-12)
(0 0 -2.69707e-12)
(0 0 -3.14728e-12)
(0 0 -3.14798e-12)
(0 0 -5.39774e-12)
(0 0 -4.49912e-12)
(0 0 -4.05011e-12)
(0 0 -4.05101e-12)
(0 0 -4.50213e-12)
(0 0 -4.95345e-12)
(0 0 -4.95456e-12)
(0 0 -5.40618e-12)
(0 0 -4.50616e-12)
(0 0 -4.95789e-12)
(0 0 -4.959e-12)
(0 0 -5.41103e-12)
(0 0 -5.41225e-12)
(0 0 -5.41347e-12)
(0 0 -5.41468e-12)
(0 0 -4.06193e-12)
(0 0 -4.51427e-12)
(0 0 -4.51529e-12)
(0 0 -4.96794e-12)
(0 0 -4.51733e-12)
(0 0 -3.61468e-12)
(0 0 -2.71162e-12)
(0 0 -3.61631e-12)
(0 0 -3.16499e-12)
(0 0 -2.26122e-12)
(0 0 -2.26173e-12)
(0 0 -2.26225e-12)
(0 0 -2.26276e-12)
(0 0 -3.16858e-12)
(0 0 -3.62206e-12)
(0 0 -2.26431e-12)
(0 0 -2.71779e-12)
(0 0 -1.81227e-12)
(0 0 -2.71903e-12)
(0 0 -2.26637e-12)
(0 0 -2.26689e-12)
(0 0 -2.72089e-12)
(0 0 -2.26793e-12)
(0 0 -1.36107e-12)
(0 0 -1.36138e-12)
(0 0 -2.26949e-12)
(0 0 -2.27001e-12)
(0 0 -2.72464e-12)
(0 0 -2.72526e-12)
(0 0 -3.63452e-12)
(0 0 -2.72652e-12)
(0 0 -2.27262e-12)
(0 0 -2.72778e-12)
(0 0 -2.72841e-12)
(0 0 -2.2742e-12)
(0 0 -1.36483e-12)
(0 0 -9.10099e-13)
(0 0 -4.55155e-13)
(0 0 -9.10521e-13)
(0 0 -1.82146e-12)
(0 0 -1.36642e-12)
(0 0 -1.36673e-12)
(0 0 -1.36705e-12)
(0 0 -9.11579e-13)
(0 0 -9.11791e-13)
(0 0 -9.12004e-13)
(0 0 -9.12216e-13)
(0 0 0)
(0 0 9.12642e-13)
(0 0 0)
(0 0 1.3696e-12)
(0 0 1.36992e-12)
(0 0 1.82699e-12)
(0 0 1.37057e-12)
(0 0 1.37089e-12)
(0 0 1.37121e-12)
(0 0 1.37153e-12)
(0 0 0)
(0 0 -4.57392e-13)
(0 0 -1.83e-12)
(0 0 -9.15216e-13)
(0 0 -1.37315e-12)
(0 0 -1.8313e-12)
(0 0 -1.3738e-12)
(0 0 -1.37412e-12)
(0 0 -1.8326e-12)
(0 0 -1.83303e-12)
(0 0 -2.29183e-12)
(0 0 -1.8339e-12)
(0 0 -1.37575e-12)
(0 0 -1.37608e-12)
(0 0 -1.83521e-12)
(0 0 -2.29455e-12)
(0 0 -1.37706e-12)
(0 0 -1.37739e-12)