/*--------------------------------*- C++ -*----------------------------------*\
| =========                 |                                                 |
| \\      /  F ield         | OpenFOAM: The Open Source CFD Toolbox           |
|  \\    /   O peration     | Version:  2.3.1                                 |
|   \\  /    A nd           | Web:      www.OpenFOAM.org                      |
|    \\/     M anipulation  |                                                 |
\*---------------------------------------------------------------------------*/
FoamFile
{
    version     2.0;
    format      ascii;
    class       volVectorField;
    location    "1e-06";
    object      U;
}
// * * * * * * * * * * * * * * * * * * * * * * * * * * * * * * * * * * * * * //

dimensions      [0 1 -1 0 0 0 0];

internalField   nonuniform List<vector> 
10000
(
(0 0 -3.61658e-13)
(0 0 0)
(0 0 3.61233e-13)
(0 0 0)
(0 0 0)
(0 0 7.22681e-13)
(0 0 7.22752e-13)
(0 0 -3.61412e-13)
(0 0 -3.61448e-13)
(0 0 0)
(0 0 0)
(0 0 3.61555e-13)
(0 0 7.23182e-13)
(0 0 3.61627e-13)
(0 0 0)
(0 0 0)
(0 0 -3.61735e-13)
(0 0 -3.61771e-13)
(0 0 -3.61807e-13)
(0 0 -1.08553e-12)
(0 0 -7.23758e-13)
(0 0 -3.61915e-13)
(0 0 -3.61951e-13)
(0 0 -3.61987e-13)
(0 0 0)
(0 0 -3.62059e-13)
(0 0 0)
(0 0 0)
(0 0 7.24336e-13)
(0 0 0)
(0 0 0)
(0 0 -7.24553e-13)
(0 0 -3.62313e-13)
(0 0 -3.62349e-13)
(0 0 3.62385e-13)
(0 0 3.62421e-13)
(0 0 7.24916e-13)
(0 0 0)
(0 0 7.25061e-13)
(0 0 7.25134e-13)
(0 0 1.08781e-12)
(0 0 1.08792e-12)
(0 0 7.25352e-13)
(0 0 7.25425e-13)
(0 0 0)
(0 0 0)
(0 0 0)
(0 0 3.62859e-13)
(0 0 -3.62895e-13)
(0 0 -1.45173e-12)
(0 0 -1.0889e-12)
(0 0 -1.81502e-12)
(0 0 -1.08912e-12)
(0 0 -1.08923e-12)
(0 0 -3.63115e-13)
(0 0 0)
(0 0 3.63188e-13)
(0 0 7.2645e-13)
(0 0 3.63261e-13)
(0 0 -3.63298e-13)
(0 0 -3.63335e-13)
(0 0 -3.63372e-13)
(0 0 -3.63409e-13)
(0 0 -3.63445e-13)
(0 0 0)
(0 0 0)
(0 0 3.63556e-13)
(0 0 -3.63593e-13)
(0 0 -3.6363e-13)
(0 0 -3.63667e-13)
(0 0 -3.63704e-13)
(0 0 -1.45496e-12)
(0 0 -7.27555e-13)
(0 0 -1.09144e-12)
(0 0 -7.27703e-13)
(0 0 -1.09167e-12)
(0 0 -1.09178e-12)
(0 0 -1.81981e-12)
(0 0 -1.092e-12)
(0 0 -1.45615e-12)
(0 0 -1.09222e-12)
(0 0 -1.09233e-12)
(0 0 0)
(0 0 0)
(0 0 0)
(0 0 -3.6426e-13)
(0 0 -1.09289e-12)
(0 0 -3.64335e-13)
(0 0 -1.09312e-12)
(0 0 -1.82205e-12)
(0 0 -1.82223e-12)
(0 0 -1.82242e-12)
(0 0 -1.82261e-12)
(0 0 -2.91647e-12)
(0 0 -2.55217e-12)
(0 0 -2.55244e-12)
(0 0 -2.5527e-12)
(0 0 -2.55296e-12)
(0 0 -2.91797e-12)
(0 0 -3.28305e-12)
(0 0 -2.91857e-12)
(0 0 -3.28373e-12)
(0 0 -3.64896e-12)
(0 0 -2.91947e-12)
(0 0 -2.5548e-12)
(0 0 -2.19006e-12)
(0 0 -1.82523e-12)
(0 0 -2.55559e-12)
(0 0 -2.55586e-12)
(0 0 -2.19096e-12)
(0 0 -1.09559e-12)
(0 0 -1.09571e-12)
(0 0 -3.65273e-13)
(0 0 -3.65311e-13)
(0 0 -3.65349e-13)
(0 0 -3.65387e-13)
(0 0 -3.65424e-13)
(0 0 -7.30925e-13)
(0 0 -7.31e-13)
(0 0 -1.09661e-12)
(0 0 -7.31152e-13)
(0 0 -1.09684e-12)
(0 0 -1.09696e-12)
(0 0 -3.6569e-13)
(0 0 -3.65728e-13)
(0 0 0)
(0 0 -3.65804e-13)
(0 0 3.65842e-13)
(0 0 0)
(0 0 3.65918e-13)
(0 0 -3.65956e-13)
(0 0 -1.09798e-12)
(0 0 -1.0981e-12)
(0 0 -7.32142e-13)
(0 0 -3.66109e-13)
(0 0 0)
(0 0 3.66186e-13)
(0 0 1.83112e-12)
(0 0 1.83131e-12)
(0 0 1.4652e-12)
(0 0 1.09902e-12)
(0 0 1.83189e-12)
(0 0 1.46566e-12)
(0 0 1.09936e-12)
(0 0 1.46597e-12)
(0 0 1.46612e-12)
(0 0 1.09971e-12)
(0 0 1.09982e-12)
(0 0 1.09994e-12)
(0 0 1.46674e-12)
(0 0 1.46689e-12)
(0 0 7.33523e-13)
(0 0 1.1004e-12)
(0 0 1.10052e-12)
(0 0 1.83439e-12)
(0 0 1.10075e-12)
(0 0 1.10086e-12)
(0 0 1.10098e-12)
(0 0 1.46813e-12)
(0 0 1.10121e-12)
(0 0 7.34219e-13)
(0 0 3.67148e-13)
(0 0 3.67187e-13)
(0 0 3.67226e-13)
(0 0 -3.67265e-13)
(0 0 -1.10191e-12)
(0 0 -1.46937e-12)
(0 0 -1.46952e-12)
(0 0 -1.10226e-12)
(0 0 -3.67459e-13)
(0 0 0)
(0 0 3.67537e-13)
(0 0 1.10273e-12)
(0 0 1.10284e-12)
(0 0 1.83827e-12)
(0 0 1.83846e-12)
(0 0 1.83866e-12)
(0 0 1.10331e-12)
(0 0 1.10343e-12)
(0 0 7.35699e-13)
(0 0 7.35777e-13)
(0 0 1.10378e-12)
(0 0 7.35934e-13)
(0 0 7.36012e-13)
(0 0 7.3609e-13)
(0 0 1.10425e-12)
(0 0 7.36247e-13)
(0 0 3.68163e-13)
(0 0 0)
(0 0 3.68242e-13)
(0 0 7.36562e-13)
(0 0 1.47328e-12)
(0 0 1.8418e-12)
(0 0 1.4736e-12)
(0 0 1.47375e-12)
(0 0 1.47391e-12)
(0 0 1.47407e-12)
(0 0 1.10567e-12)
(0 0 1.47439e-12)
(0 0 1.47454e-12)
(0 0 1.10603e-12)
(0 0 3.68715e-13)
(0 0 3.68755e-13)
(0 0 7.37589e-13)
(0 0 7.37668e-13)
(0 0 1.10662e-12)
(0 0 0)
(0 0 3.68953e-13)
(0 0 7.37986e-13)
(0 0 3.69033e-13)
(0 0 1.10722e-12)
(0 0 1.47645e-12)
(0 0 1.84576e-12)
(0 0 1.47677e-12)
(0 0 1.47693e-12)
(0 0 1.84636e-12)
(0 0 7.38623e-13)
(0 0 1.10805e-12)
(0 0 1.47757e-12)
(0 0 1.10829e-12)
(0 0 2.5863e-12)
(0 0 2.58658e-12)
(0 0 3.32596e-12)
(0 0 3.32633e-12)
(0 0 2.95705e-12)
(0 0 3.32705e-12)
(0 0 2.9577e-12)
(0 0 2.58826e-12)
(0 0 2.58855e-12)
(0 0 1.84916e-12)
(0 0 1.47949e-12)
(0 0 1.47965e-12)
(0 0 1.47981e-12)
(0 0 1.84997e-12)
(0 0 1.85017e-12)
(0 0 1.85037e-12)
(0 0 2.5908e-12)
(0 0 2.22093e-12)
(0 0 2.22117e-12)
(0 0 1.48094e-12)
(0 0 1.11083e-12)
(0 0 1.11095e-12)
(0 0 1.11107e-12)
(0 0 1.48159e-12)
(0 0 1.85219e-12)
(0 0 2.59335e-12)
(0 0 1.8526e-12)
(0 0 2.22336e-12)
(0 0 2.2236e-12)
(0 0 1.48256e-12)
(0 0 1.11204e-12)
(0 0 1.11217e-12)
(0 0 3.70763e-13)
(0 0 3.70804e-13)
(0 0 -3.70844e-13)
(0 0 -7.4177e-13)
(0 0 -7.41852e-13)
(0 0 -3.70967e-13)
(0 0 0)
(0 0 3.71048e-13)
(0 0 0)
(0 0 0)
(0 0 0)
(0 0 -7.42424e-13)
(0 0 -7.42506e-13)
(0 0 -3.71294e-13)
(0 0 0)
(0 0 0)
(0 0 0)
(0 0 0)
(0 0 0)
(0 0 0)
(0 0 3.71582e-13)
(0 0 3.71623e-13)
(0 0 7.43328e-13)
(0 0 1.11512e-12)
(0 0 7.43493e-13)
(0 0 1.48715e-12)
(0 0 7.43658e-13)
(0 0 7.4374e-13)
(0 0 0)
(0 0 -7.43906e-13)
(0 0 -7.43988e-13)
(0 0 0)
(0 0 7.44154e-13)
(0 0 7.44237e-13)
(0 0 7.4432e-13)
(0 0 7.44403e-13)
(0 0 7.44486e-13)
(0 0 1.11685e-12)
(0 0 1.4893e-12)
(0 0 1.1171e-12)
(0 0 1.48964e-12)
(0 0 1.4898e-12)
(0 0 7.44985e-13)
(0 0 7.45068e-13)
(0 0 7.45152e-13)
(0 0 1.86309e-12)
(0 0 1.49064e-12)
(0 0 1.4908e-12)
(0 0 1.49097e-12)
(0 0 2.23671e-12)
(0 0 1.49131e-12)
(0 0 2.23721e-12)
(0 0 1.11873e-12)
(0 0 1.11886e-12)
(0 0 1.11898e-12)
(0 0 1.11911e-12)
(0 0 1.49231e-12)
(0 0 1.49248e-12)
(0 0 2.23897e-12)
(0 0 2.23922e-12)
(0 0 2.23948e-12)
(0 0 2.23973e-12)
(0 0 2.61331e-12)
(0 0 1.86686e-12)
(0 0 1.12024e-12)
(0 0 7.46913e-13)
(0 0 3.73499e-13)
(0 0 3.73541e-13)
(0 0 1.12075e-12)
(0 0 1.12088e-12)
(0 0 1.121e-12)
(0 0 0)
(0 0 0)
(0 0 3.73795e-13)
(0 0 3.73837e-13)
(0 0 0)
(0 0 -3.73922e-13)
(0 0 -1.12189e-12)
(0 0 -1.49603e-12)
(0 0 -2.9924e-12)
(0 0 -3.36683e-12)
(0 0 -3.36721e-12)
(0 0 -2.99342e-12)
(0 0 -2.24532e-12)
(0 0 -2.61984e-12)
(0 0 -2.62014e-12)
(0 0 -2.62044e-12)
(0 0 -2.62073e-12)
(0 0 -2.99547e-12)
(0 0 -2.99581e-12)
(0 0 -2.99615e-12)
(0 0 -2.62193e-12)
(0 0 -2.24763e-12)
(0 0 -1.49859e-12)
(0 0 -1.87345e-12)
(0 0 -2.2484e-12)
(0 0 -2.62343e-12)
(0 0 -2.62373e-12)
(0 0 -2.24917e-12)
(0 0 -1.87452e-12)
(0 0 -1.12484e-12)
(0 0 -7.49982e-13)
(0 0 -7.50068e-13)
(0 0 0)
(0 0 -7.50241e-13)
(0 0 -3.75163e-13)
(0 0 -7.50413e-13)
(0 0 -1.12575e-12)
(0 0 -7.50586e-13)
(0 0 -3.75336e-13)
(0 0 -7.50759e-13)
(0 0 -1.50169e-12)
(0 0 -1.50186e-12)
(0 0 -1.50204e-12)
(0 0 -1.50221e-12)
(0 0 -1.12679e-12)
(0 0 -1.50256e-12)
(0 0 -1.87842e-12)
(0 0 -1.87863e-12)
(0 0 -1.50308e-12)
(0 0 -1.50325e-12)
(0 0 -1.87929e-12)
(0 0 -1.5036e-12)
(0 0 -1.87972e-12)
(0 0 -1.12796e-12)
(0 0 -1.88016e-12)
(0 0 -1.12823e-12)
(0 0 -1.12836e-12)
(0 0 -3.76162e-13)
(0 0 0)
(0 0 -3.7625e-13)
(0 0 0)
(0 0 3.76338e-13)
(0 0 0)
(0 0 -3.76425e-13)
(0 0 -3.76469e-13)
(0 0 -3.76513e-13)
(0 0 -3.76557e-13)
(0 0 -7.53202e-13)
(0 0 -7.5329e-13)
(0 0 0)
(0 0 -7.53466e-13)
(0 0 -1.13033e-12)
(0 0 -1.50728e-12)
(0 0 -1.1306e-12)
(0 0 -1.50764e-12)
(0 0 -3.76953e-13)
(0 0 -3.76998e-13)
(0 0 3.77042e-13)
(0 0 -7.54172e-13)
(0 0 0)
(0 0 0)
(0 0 3.77219e-13)
(0 0 0)
(0 0 -3.77308e-13)
(0 0 0)
(0 0 -7.54793e-13)
(0 0 0)
(0 0 -7.54971e-13)
(0 0 -7.5506e-13)
(0 0 -7.55149e-13)
(0 0 -1.13286e-12)
(0 0 -7.55327e-13)
(0 0 -7.55416e-13)
(0 0 -3.77753e-13)
(0 0 0)
(0 0 -3.77842e-13)
(0 0 3.77887e-13)
(0 0 3.77931e-13)
(0 0 3.77976e-13)
(0 0 0)
(0 0 -7.56131e-13)
(0 0 -3.7811e-13)
(0 0 -1.13447e-12)
(0 0 -7.564e-13)
(0 0 -3.78245e-13)
(0 0 -3.7829e-13)
(0 0 0)
(0 0 7.5676e-13)
(0 0 1.13527e-12)
(0 0 7.5694e-13)
(0 0 1.13555e-12)
(0 0 1.51424e-12)
(0 0 1.13582e-12)
(0 0 1.89325e-12)
(0 0 1.51478e-12)
(0 0 1.51496e-12)
(0 0 2.27272e-12)
(0 0 2.65182e-12)
(0 0 3.03101e-12)
(0 0 3.78922e-12)
(0 0 3.03174e-12)
(0 0 3.0321e-12)
(0 0 3.41152e-12)
(0 0 3.79103e-12)
(0 0 3.03319e-12)
(0 0 3.41275e-12)
(0 0 3.03392e-12)
(0 0 2.655e-12)
(0 0 3.03464e-12)
(0 0 2.65563e-12)
(0 0 2.27653e-12)
(0 0 1.89734e-12)
(0 0 1.89757e-12)
(0 0 1.13868e-12)
(0 0 7.59209e-13)
(0 0 7.593e-13)
(0 0 1.89848e-12)
(0 0 1.89871e-12)
(0 0 1.13936e-12)
(0 0 1.51933e-12)
(0 0 1.8994e-12)
(0 0 1.89962e-12)
(0 0 2.27983e-12)
(0 0 1.90008e-12)
(0 0 1.52025e-12)
(0 0 7.60218e-13)
(0 0 7.6031e-13)
(0 0 7.60402e-13)
(0 0 7.60494e-13)
(0 0 0)
(0 0 7.60678e-13)
(0 0 7.60771e-13)
(0 0 1.90216e-12)
(0 0 2.28287e-12)
(0 0 2.66367e-12)
(0 0 1.52228e-12)
(0 0 1.52247e-12)
(0 0 1.14199e-12)
(0 0 1.14213e-12)
(0 0 1.52302e-12)
(0 0 7.61604e-13)
(0 0 3.80848e-13)
(0 0 7.61789e-13)
(0 0 1.14282e-12)
(0 0 7.61975e-13)
(0 0 3.81034e-13)
(0 0 7.62162e-13)
(0 0 7.62255e-13)
(0 0 3.81174e-13)
(0 0 0)
(0 0 3.81267e-13)
(0 0 3.81314e-13)
(0 0 1.14408e-12)
(0 0 3.81407e-13)
(0 0 1.14436e-12)
(0 0 1.1445e-12)
(0 0 7.63334e-13)
(0 0 -7.63189e-13)
(0 0 -7.63283e-13)
(0 0 -1.52675e-12)
(0 0 -1.90868e-12)
(0 0 -1.90891e-12)
(0 0 -1.90915e-12)
(0 0 -2.67314e-12)
(0 0 -2.67347e-12)
(0 0 -2.6738e-12)
(0 0 -2.67412e-12)
(0 0 -2.29239e-12)
(0 0 -1.52845e-12)
(0 0 -7.64319e-13)
(0 0 -7.64413e-13)
(0 0 -3.82254e-13)
(0 0 -7.64602e-13)
(0 0 -1.52939e-12)
(0 0 -1.52958e-12)
(0 0 -1.52977e-12)
(0 0 -1.52996e-12)
(0 0 -1.53015e-12)
(0 0 -1.53034e-12)
(0 0 -1.53053e-12)
(0 0 -1.53072e-12)
(0 0 -1.14818e-12)
(0 0 -7.65551e-13)
(0 0 -3.82823e-13)
(0 0 0)
(0 0 0)
(0 0 -7.65932e-13)
(0 0 -7.66028e-13)
(0 0 -1.53225e-12)
(0 0 -7.66219e-13)
(0 0 -3.83157e-13)
(0 0 -3.83205e-13)
(0 0 0)
(0 0 -3.83301e-13)
(0 0 -3.83349e-13)
(0 0 0)
(0 0 0)
(0 0 0)
(0 0 0)
(0 0 0)
(0 0 0)
(0 0 0)
(0 0 -3.83733e-13)
(0 0 3.83781e-13)
(0 0 7.67659e-13)
(0 0 1.15163e-12)
(0 0 3.83926e-13)
(0 0 0)
(0 0 -3.84022e-13)
(0 0 -3.84071e-13)
(0 0 0)
(0 0 0)
(0 0 -3.84216e-13)
(0 0 -3.84264e-13)
(0 0 -3.84313e-13)
(0 0 -3.84362e-13)
(0 0 -3.8441e-13)
(0 0 -7.68917e-13)
(0 0 -7.69015e-13)
(0 0 -7.69112e-13)
(0 0 -7.69209e-13)
(0 0 -3.84653e-13)
(0 0 -3.84702e-13)
(0 0 0)
(0 0 0)
(0 0 -7.69697e-13)
(0 0 -3.84897e-13)
(0 0 -3.84946e-13)
(0 0 -3.84995e-13)
(0 0 -3.85044e-13)
(0 0 -3.85093e-13)
(0 0 -3.85142e-13)
(0 0 0)
(0 0 -3.8524e-13)
(0 0 -3.85289e-13)
(0 0 0)
(0 0 3.85387e-13)
(0 0 0)
(0 0 -3.85486e-13)
(0 0 -7.7107e-13)
(0 0 -3.85584e-13)
(0 0 -1.1569e-12)
(0 0 -3.85683e-13)
(0 0 -7.71465e-13)
(0 0 -7.71563e-13)
(0 0 0)
(0 0 -7.71761e-13)
(0 0 0)
(0 0 3.8598e-13)
(0 0 0)
(0 0 -3.86079e-13)
(0 0 -7.72257e-13)
(0 0 -7.72356e-13)
(0 0 -7.72455e-13)
(0 0 -1.54511e-12)
(0 0 -1.15898e-12)
(0 0 -1.54551e-12)
(0 0 -1.93213e-12)
(0 0 -1.93238e-12)
(0 0 -2.31916e-12)
(0 0 -1.93288e-12)
(0 0 -1.93313e-12)
(0 0 -1.16003e-12)
(0 0 -1.16018e-12)
(0 0 -7.73552e-13)
(0 0 -1.5473e-12)
(0 0 -1.5475e-12)
(0 0 -1.5477e-12)
(0 0 -1.93488e-12)
(0 0 -1.54811e-12)
(0 0 -1.16123e-12)
(0 0 -1.16138e-12)
(0 0 -1.54871e-12)
(0 0 -7.74455e-13)
(0 0 -7.74555e-13)
(0 0 -7.74656e-13)
(0 0 -3.87378e-13)
(0 0 0)
(0 0 7.74958e-13)
(0 0 3.8753e-13)
(0 0 7.7516e-13)
(0 0 3.87631e-13)
(0 0 1.16304e-12)
(0 0 1.1632e-12)
(0 0 1.93891e-12)
(0 0 1.93917e-12)
(0 0 2.3273e-12)
(0 0 1.55174e-12)
(0 0 1.55194e-12)
(0 0 1.16411e-12)
(0 0 1.16426e-12)
(0 0 1.16441e-12)
(0 0 1.55275e-12)
(0 0 1.55296e-12)
(0 0 1.55316e-12)
(0 0 1.16502e-12)
(0 0 3.88392e-13)
(0 0 3.88443e-13)
(0 0 0)
(0 0 0)
(0 0 7.77194e-13)
(0 0 7.77296e-13)
(0 0 7.77398e-13)
(0 0 7.77501e-13)
(0 0 7.77603e-13)
(0 0 3.88853e-13)
(0 0 1.16671e-12)
(0 0 7.77911e-13)
(0 0 7.78014e-13)
(0 0 0)
(0 0 3.8911e-13)
(0 0 3.89161e-13)
(0 0 3.89213e-13)
(0 0 1.55706e-12)
(0 0 1.55726e-12)
(0 0 1.55747e-12)
(0 0 1.55768e-12)
(0 0 3.89471e-13)
(0 0 7.79045e-13)
(0 0 7.79149e-13)
(0 0 7.79252e-13)
(0 0 3.89678e-13)
(0 0 3.8973e-13)
(0 0 3.89782e-13)
(0 0 7.79667e-13)
(0 0 3.89886e-13)
(0 0 3.89938e-13)
(0 0 0)
(0 0 -7.80083e-13)
(0 0 -1.17028e-12)
(0 0 -1.17044e-12)
(0 0 -1.17059e-12)
(0 0 -1.17075e-12)
(0 0 -1.56121e-12)
(0 0 -1.56142e-12)
(0 0 -1.56163e-12)
(0 0 -1.56184e-12)
(0 0 -1.95256e-12)
(0 0 -2.34338e-12)
(0 0 -1.56247e-12)
(0 0 -1.56267e-12)
(0 0 -1.17216e-12)
(0 0 -1.56309e-12)
(0 0 -1.95413e-12)
(0 0 -1.56352e-12)
(0 0 -1.95466e-12)
(0 0 -1.17295e-12)
(0 0 -1.95518e-12)
(0 0 -2.73763e-12)
(0 0 -2.738e-12)
(0 0 -3.12956e-12)
(0 0 -3.12998e-12)
(0 0 -2.3478e-12)
(0 0 -2.73947e-12)
(0 0 -2.73984e-12)
(0 0 -1.9573e-12)
(0 0 -2.34907e-12)
(0 0 -1.95783e-12)
(0 0 -1.56647e-12)
(0 0 -1.56669e-12)
(0 0 -1.17517e-12)
(0 0 -7.83555e-13)
(0 0 -1.17549e-12)
(0 0 -7.83768e-13)
(0 0 -1.17581e-12)
(0 0 -7.83981e-13)
(0 0 -3.92044e-13)
(0 0 3.92097e-13)
(0 0 7.84301e-13)
(0 0 1.17661e-12)
(0 0 7.84515e-13)
(0 0 1.17693e-12)
(0 0 7.84729e-13)
(0 0 3.92418e-13)
(0 0 7.84943e-13)
(0 0 3.92525e-13)
(0 0 3.92579e-13)
(0 0 7.85265e-13)
(0 0 1.96343e-12)
(0 0 1.9637e-12)
(0 0 2.35676e-12)
(0 0 1.96424e-12)
(0 0 1.96451e-12)
(0 0 1.96478e-12)
(0 0 1.57204e-12)
(0 0 1.17919e-12)
(0 0 1.57247e-12)
(0 0 7.86343e-13)
(0 0 1.96613e-12)
(0 0 1.57312e-12)
(0 0 1.18e-12)
(0 0 1.18016e-12)
(0 0 1.57377e-12)
(0 0 1.57399e-12)
(0 0 1.5742e-12)
(0 0 7.8721e-13)
(0 0 7.87319e-13)
(0 0 7.87428e-13)
(0 0 1.18131e-12)
(0 0 7.87646e-13)
(0 0 7.87755e-13)
(0 0 3.93932e-13)
(0 0 1.57595e-12)
(0 0 2.36425e-12)
(0 0 2.36457e-12)
(0 0 2.3649e-12)
(0 0 1.57682e-12)
(0 0 1.57704e-12)
(0 0 3.94315e-13)
(0 0 7.88739e-13)
(0 0 0)
(0 0 -1.18344e-12)
(0 0 -1.1836e-12)
(0 0 -1.57836e-12)
(0 0 -1.97322e-12)
(0 0 -1.5788e-12)
(0 0 -1.57902e-12)
(0 0 -1.97405e-12)
(0 0 -1.57946e-12)
(0 0 -1.57968e-12)
(0 0 -7.8995e-13)
(0 0 -1.18509e-12)
(0 0 -7.90171e-13)
(0 0 -1.18542e-12)
(0 0 -1.18559e-12)
(0 0 -2.37151e-12)
(0 0 -1.18592e-12)
(0 0 -1.18609e-12)
(0 0 -1.18625e-12)
(0 0 -1.97737e-12)
(0 0 -1.97765e-12)
(0 0 -1.97792e-12)
(0 0 -1.58256e-12)
(0 0 -1.58278e-12)
(0 0 -1.58301e-12)
(0 0 -1.18742e-12)
(0 0 -1.18759e-12)
(0 0 -1.58368e-12)
(0 0 -1.97988e-12)
(0 0 -2.77222e-12)
(0 0 -1.98043e-12)
(0 0 -1.98071e-12)
(0 0 -1.98099e-12)
(0 0 -1.18876e-12)
(0 0 -1.18893e-12)
(0 0 -1.1891e-12)
(0 0 -1.18927e-12)
(0 0 -1.18944e-12)
(0 0 -1.18961e-12)
(0 0 -1.58637e-12)
(0 0 -1.18995e-12)
(0 0 -7.9341e-13)
(0 0 -3.96761e-13)
(0 0 3.96818e-13)
(0 0 0)
(0 0 0)
(0 0 0)
(0 0 3.97044e-13)
(0 0 7.94201e-13)
(0 0 1.19147e-12)
(0 0 1.19164e-12)
(0 0 7.94541e-13)
(0 0 1.58931e-12)
(0 0 1.98692e-12)
(0 0 2.38464e-12)
(0 0 2.38499e-12)
(0 0 3.57799e-12)
(0 0 3.18089e-12)
(0 0 3.18135e-12)
(0 0 2.78408e-12)
(0 0 2.3867e-12)
(0 0 3.18272e-12)
(0 0 2.78528e-12)
(0 0 1.98977e-12)
(0 0 1.99006e-12)
(0 0 1.99034e-12)
(0 0 1.5925e-12)
(0 0 1.19455e-12)
(0 0 1.19472e-12)
(0 0 1.19489e-12)
(0 0 7.96711e-13)
(0 0 1.19524e-12)
(0 0 7.96941e-13)
(0 0 1.19558e-12)
(0 0 1.19576e-12)
(0 0 1.19593e-12)
(0 0 3.98701e-13)
(0 0 7.97518e-13)
(0 0 7.97633e-13)
(0 0 1.5955e-12)
(0 0 1.99466e-12)
(0 0 2.79293e-12)
(0 0 1.99524e-12)
(0 0 2.39464e-12)
(0 0 1.59666e-12)
(0 0 1.19767e-12)
(0 0 1.19784e-12)
(0 0 1.59735e-12)
(0 0 1.19819e-12)
(0 0 1.19836e-12)
(0 0 3.99513e-13)
(0 0 7.99142e-13)
(0 0 3.9963e-13)
(0 0 3.99688e-13)
(0 0 0)
(0 0 0)
(0 0 -3.99863e-13)
(0 0 -1.19977e-12)
(0 0 -7.99961e-13)
(0 0 -8.00078e-13)
(0 0 -4.00098e-13)
(0 0 -4.00156e-13)
(0 0 8.0043e-13)
(0 0 8.00547e-13)
(0 0 8.00665e-13)
(0 0 1.60157e-12)
(0 0 2.00225e-12)
(0 0 1.60204e-12)
(0 0 1.60227e-12)
(0 0 1.60251e-12)
(0 0 1.60274e-12)
(0 0 2.00373e-12)
(0 0 2.00402e-12)
(0 0 2.00432e-12)
(0 0 2.00461e-12)
(0 0 1.60393e-12)
(0 0 8.02082e-13)
(0 0 1.2033e-12)
(0 0 8.0232e-13)
(0 0 1.20366e-12)
(0 0 1.20384e-12)
(0 0 1.20401e-12)
(0 0 8.02795e-13)
(0 0 0)
(0 0 0)
(0 0 0)
(0 0 -8.03272e-13)
(0 0 -8.03392e-13)
(0 0 -4.01756e-13)
(0 0 -4.01816e-13)
(0 0 -1.6075e-12)
(0 0 -1.60774e-12)
(0 0 -2.00998e-12)
(0 0 -8.0411e-13)
(0 0 -1.60846e-12)
(0 0 -8.04351e-13)
(0 0 -8.04471e-13)
(0 0 -8.04591e-13)
(0 0 -1.20707e-12)
(0 0 -8.04832e-13)
(0 0 -1.20743e-12)
(0 0 -2.01268e-12)
(0 0 -2.01298e-12)
(0 0 -2.41594e-12)
(0 0 -2.41631e-12)
(0 0 -2.41667e-12)
(0 0 -2.41703e-12)
(0 0 -2.4174e-12)
(0 0 -2.0148e-12)
(0 0 -2.0151e-12)
(0 0 -2.01541e-12)
(0 0 -2.41885e-12)
(0 0 -2.82242e-12)
(0 0 -2.82284e-12)
(0 0 -2.01662e-12)
(0 0 -1.61354e-12)
(0 0 -1.21034e-12)
(0 0 -1.21052e-12)
(0 0 -1.61427e-12)
(0 0 -8.07258e-13)
(0 0 -4.0369e-13)
(0 0 -4.03752e-13)
(0 0 -1.21144e-12)
(0 0 -4.03874e-13)
(0 0 -8.0787e-13)
(0 0 -4.03997e-13)
(0 0 -4.04058e-13)
(0 0 -4.04119e-13)
(0 0 -8.08362e-13)
(0 0 -4.04242e-13)
(0 0 -8.08608e-13)
(0 0 -1.2131e-12)
(0 0 -8.08854e-13)
(0 0 -1.61795e-12)
(0 0 -2.02275e-12)
(0 0 -2.02306e-12)
(0 0 -2.02337e-12)
(0 0 -1.61894e-12)
(0 0 -1.21439e-12)
(0 0 -4.0486e-13)
(0 0 -1.21476e-12)
(0 0 -1.21495e-12)
(0 0 -1.62018e-12)
(0 0 -2.02554e-12)
(0 0 -1.62068e-12)
(0 0 -1.62093e-12)
(0 0 -1.62118e-12)
(0 0 -1.21607e-12)
(0 0 -8.10838e-13)
(0 0 -4.05481e-13)
(0 0 -4.05544e-13)
(0 0 -8.11212e-13)
(0 0 0)
(0 0 4.05731e-13)
(0 0 4.05794e-13)
(0 0 8.11713e-13)
(0 0 8.11838e-13)
(0 0 1.21795e-12)
(0 0 1.21813e-12)
(0 0 2.03054e-12)
(0 0 1.62468e-12)
(0 0 1.62493e-12)
(0 0 4.06296e-13)
(0 0 8.12718e-13)
(0 0 -8.12844e-13)
(0 0 -1.21946e-12)
(0 0 -1.62619e-12)
(0 0 -2.43967e-12)
(0 0 -2.03337e-12)
(0 0 -2.03369e-12)
(0 0 -2.03401e-12)
(0 0 -1.62746e-12)
(0 0 -8.13856e-13)
(0 0 -8.13983e-13)
(0 0 -8.1411e-13)
(0 0 0)
(0 0 1.22155e-12)
(0 0 1.22174e-12)
(0 0 8.14619e-13)
(0 0 8.14746e-13)
(0 0 1.22231e-12)
(0 0 1.2225e-12)
(0 0 1.22269e-12)
(0 0 4.07628e-13)
(0 0 4.07692e-13)
(0 0 0)
(0 0 8.15641e-13)
(0 0 4.07884e-13)
(0 0 1.22385e-12)
(0 0 2.44808e-12)
(0 0 2.04038e-12)
(0 0 2.44885e-12)
(0 0 2.04103e-12)
(0 0 1.22481e-12)
(0 0 1.63334e-12)
(0 0 8.16797e-13)
(0 0 1.22539e-12)
(0 0 4.08528e-13)
(0 0 4.08592e-13)
(0 0 -8.17314e-13)
(0 0 -8.17443e-13)
(0 0 -8.17573e-13)
(0 0 -1.22655e-12)
(0 0 -8.17832e-13)
(0 0 -4.08981e-13)
(0 0 0)
(0 0 0)
(0 0 4.09175e-13)
(0 0 0)
(0 0 4.09306e-13)
(0 0 0)
(0 0 0)
(0 0 -4.09501e-13)
(0 0 0)
(0 0 4.09632e-13)
(0 0 0)
(0 0 -4.09763e-13)
(0 0 0)
(0 0 -8.19788e-13)
(0 0 -1.22988e-12)
(0 0 -1.23008e-12)
(0 0 -1.64036e-12)
(0 0 -8.20313e-13)
(0 0 -4.10222e-13)
(0 0 0)
(0 0 -8.20708e-13)
(0 0 -1.23126e-12)
(0 0 -1.64194e-12)
(0 0 -1.64221e-12)
(0 0 -2.05309e-12)
(0 0 -2.4641e-12)
(0 0 -1.643e-12)
(0 0 -1.23245e-12)
(0 0 -1.64353e-12)
(0 0 -1.6438e-12)
(0 0 -2.05508e-12)
(0 0 -1.23325e-12)
(0 0 -1.23344e-12)
(0 0 -1.64486e-12)
(0 0 -1.23384e-12)
(0 0 -2.05674e-12)
(0 0 -2.46849e-12)
(0 0 -2.05741e-12)
(0 0 -1.64619e-12)
(0 0 -2.05807e-12)
(0 0 -1.64673e-12)
(0 0 -1.64699e-12)
(0 0 -8.23631e-13)
(0 0 -8.23765e-13)
(0 0 -1.23585e-12)
(0 0 -1.64807e-12)
(0 0 -2.06042e-12)
(0 0 -2.06075e-12)
(0 0 -2.47331e-12)
(0 0 -2.06143e-12)
(0 0 -2.06176e-12)
(0 0 -1.64968e-12)
(0 0 -1.64995e-12)
(0 0 -8.2511e-13)
(0 0 -8.25245e-13)
(0 0 -8.2538e-13)
(0 0 -8.25516e-13)
(0 0 -8.25651e-13)
(0 0 -1.23868e-12)
(0 0 -1.65184e-12)
(0 0 -8.26058e-13)
(0 0 -4.13097e-13)
(0 0 -1.23949e-12)
(0 0 -1.65293e-12)
(0 0 -4.13301e-13)
(0 0 -4.13369e-13)
(0 0 8.26874e-13)
(0 0 4.13505e-13)
(0 0 0)
(0 0 -4.13642e-13)
(0 0 0)
(0 0 0)
(0 0 0)
(0 0 0)
(0 0 -4.13984e-13)
(0 0 -4.14053e-13)
(0 0 0)
(0 0 0)
(0 0 -4.14259e-13)
(0 0 4.14328e-13)
(0 0 8.28793e-13)
(0 0 8.28931e-13)
(0 0 8.29069e-13)
(0 0 8.29207e-13)
(0 0 4.14672e-13)
(0 0 8.29483e-13)
(0 0 8.29622e-13)
(0 0 8.2976e-13)
(0 0 8.29899e-13)
(0 0 1.66007e-12)
(0 0 1.66035e-12)
(0 0 1.66063e-12)
(0 0 8.30454e-13)
(0 0 8.30593e-13)
(0 0 1.2461e-12)
(0 0 2.49261e-12)
(0 0 1.66202e-12)
(0 0 2.07788e-12)
(0 0 2.07822e-12)
(0 0 1.66286e-12)
(0 0 1.24735e-12)
(0 0 2.07927e-12)
(0 0 1.6637e-12)
(0 0 1.66398e-12)
(0 0 1.24819e-12)
(0 0 1.24841e-12)
(0 0 1.24862e-12)
(0 0 8.32551e-13)
(0 0 1.66538e-12)
(0 0 8.32833e-13)
(0 0 8.32974e-13)
(0 0 4.16557e-13)
(0 0 4.16628e-13)
(0 0 8.33397e-13)
(0 0 8.33538e-13)
(0 0 8.3368e-13)
(0 0 8.33821e-13)
(0 0 0)
(0 0 -4.17052e-13)
(0 0 -4.17123e-13)
(0 0 -1.25158e-12)
(0 0 -4.17265e-13)
(0 0 -8.34673e-13)
(0 0 -8.34815e-13)
(0 0 0)
(0 0 4.1755e-13)
(0 0 0)
(0 0 4.17693e-13)
(0 0 0)
(0 0 4.17836e-13)
(0 0 4.17907e-13)
(0 0 4.17979e-13)
(0 0 4.1805e-13)
(0 0 4.18122e-13)
(0 0 4.18194e-13)
(0 0 0)
(0 0 4.18338e-13)
(0 0 1.25523e-12)
(0 0 1.25544e-12)
(0 0 4.18553e-13)
(0 0 -4.18626e-13)
(0 0 4.18698e-13)
(0 0 0)
(0 0 8.37684e-13)
(0 0 4.18915e-13)
(0 0 1.25696e-12)
(0 0 8.38119e-13)
(0 0 0)
(0 0 -8.38409e-13)
(0 0 -1.25783e-12)
(0 0 -1.6774e-12)
(0 0 -4.19422e-13)
(0 0 0)
(0 0 4.19568e-13)
(0 0 0)
(0 0 4.19714e-13)
(0 0 4.19787e-13)
(0 0 8.39719e-13)
(0 0 1.2598e-12)
(0 0 8.40012e-13)
(0 0 1.26024e-12)
(0 0 1.26046e-12)
(0 0 1.6809e-12)
(0 0 2.1015e-12)
(0 0 1.68149e-12)
(0 0 1.26134e-12)
(0 0 1.68208e-12)
(0 0 4.20593e-13)
(0 0 1.68267e-12)
(0 0 1.68296e-12)
(0 0 1.68326e-12)
(0 0 1.68355e-12)
(0 0 2.10481e-12)
(0 0 1.68415e-12)
(0 0 4.2111e-13)
(0 0 4.21185e-13)
(0 0 -4.21259e-13)
(0 0 0)
(0 0 -4.21407e-13)
(0 0 -8.42963e-13)
(0 0 -4.21556e-13)
(0 0 -4.2163e-13)
(0 0 -8.4341e-13)
(0 0 -1.26534e-12)
(0 0 -1.68742e-12)
(0 0 -1.68771e-12)
(0 0 -1.68801e-12)
(0 0 -1.68831e-12)
(0 0 -1.68861e-12)
(0 0 -2.9556e-12)
(0 0 -2.53382e-12)
(0 0 -2.53427e-12)
(0 0 -2.53472e-12)
(0 0 -1.26758e-12)
(0 0 -1.69041e-12)
(0 0 -4.22679e-13)
(0 0 -4.22754e-13)
(0 0 0)
(0 0 0)
(0 0 0)
(0 0 -4.23056e-13)
(0 0 0)
(0 0 -8.46415e-13)
(0 0 -8.46566e-13)
(0 0 -1.69344e-12)
(0 0 -1.2703e-12)
(0 0 -8.47021e-13)
(0 0 -8.47173e-13)
(0 0 -4.23663e-13)
(0 0 -8.47478e-13)
(0 0 0)
(0 0 0)
(0 0 0)
(0 0 8.48088e-13)
(0 0 1.27236e-12)
(0 0 1.27259e-12)
(0 0 8.48547e-13)
(0 0 1.6974e-12)
(0 0 8.48853e-13)
(0 0 1.69801e-12)
(0 0 2.1229e-12)
(0 0 1.27397e-12)
(0 0 1.2742e-12)
(0 0 4.24811e-13)
(0 0 1.27466e-12)
(0 0 1.2749e-12)
(0 0 1.27513e-12)
(0 0 8.50239e-13)
(0 0 1.27559e-12)
(0 0 1.7011e-12)
(0 0 8.50703e-13)
(0 0 8.50858e-13)
(0 0 8.51013e-13)
(0 0 4.25584e-13)
(0 0 8.51324e-13)
(0 0 8.51479e-13)
(0 0 8.51635e-13)
(0 0 8.51791e-13)
(0 0 1.27792e-12)
(0 0 8.52103e-13)
(0 0 4.26129e-13)
(0 0 0)
(0 0 4.26286e-13)
(0 0 8.52728e-13)
(0 0 4.26442e-13)
(0 0 0)
(0 0 -8.53198e-13)
(0 0 -8.53355e-13)
(0 0 -8.53512e-13)
(0 0 -8.53669e-13)
(0 0 -4.26913e-13)
(0 0 -4.26992e-13)
(0 0 0)
(0 0 8.543e-13)
(0 0 8.54458e-13)
(0 0 1.28192e-12)
(0 0 1.28216e-12)
(0 0 1.70986e-12)
(0 0 1.71018e-12)
(0 0 1.7105e-12)
(0 0 1.28311e-12)
(0 0 1.71113e-12)
(0 0 1.28359e-12)
(0 0 1.28383e-12)
(0 0 2.14011e-12)
(0 0 8.56203e-13)
(0 0 1.28454e-12)
(0 0 1.28478e-12)
(0 0 8.56682e-13)
(0 0 1.28526e-12)
(0 0 8.57002e-13)
(0 0 8.57162e-13)
(0 0 1.28598e-12)
(0 0 1.28622e-12)
(0 0 8.57643e-13)
(0 0 8.57804e-13)
(0 0 4.28982e-13)
(0 0 4.29063e-13)
(0 0 4.29143e-13)
(0 0 4.29224e-13)
(0 0 1.28791e-12)
(0 0 8.58771e-13)
(0 0 8.58932e-13)
(0 0 8.59094e-13)
(0 0 8.59256e-13)
(0 0 8.59418e-13)
(0 0 0)
(0 0 -8.59742e-13)
(0 0 -8.59905e-13)
(0 0 -8.60067e-13)
(0 0 -8.6023e-13)
(0 0 0)
(0 0 0)
(0 0 -8.60719e-13)
(0 0 0)
(0 0 -4.30523e-13)
(0 0 4.30605e-13)
(0 0 0)
(0 0 0)
(0 0 4.3085e-13)
(0 0 4.30932e-13)
(0 0 0)
(0 0 0)
(0 0 0)
(0 0 8.62522e-13)
(0 0 4.31344e-13)
(0 0 0)
(0 0 0)
(0 0 0)
(0 0 -4.31674e-13)
(0 0 0)
(0 0 8.63679e-13)
(0 0 4.31922e-13)
(0 0 1.29602e-12)
(0 0 8.64176e-13)
(0 0 1.29651e-12)
(0 0 4.32254e-13)
(0 0 4.32338e-13)
(0 0 4.32421e-13)
(0 0 8.65008e-13)
(0 0 1.29776e-12)
(0 0 8.65342e-13)
(0 0 8.65509e-13)
(0 0 8.65677e-13)
(0 0 4.32922e-13)
(0 0 4.33006e-13)
(0 0 8.6618e-13)
(0 0 4.33174e-13)
(0 0 0)
(0 0 4.33342e-13)
(0 0 4.33426e-13)
(0 0 0)
(0 0 4.33594e-13)
(0 0 0)
(0 0 -4.33763e-13)
(0 0 -1.30154e-12)
(0 0 -1.73573e-12)
(0 0 -1.73607e-12)
(0 0 -1.73641e-12)
(0 0 -1.73675e-12)
(0 0 -1.30281e-12)
(0 0 -8.68713e-13)
(0 0 -4.34441e-13)
(0 0 -4.34527e-13)
(0 0 0)
(0 0 0)
(0 0 -8.69565e-13)
(0 0 -8.69735e-13)
(0 0 -8.69906e-13)
(0 0 -4.35039e-13)
(0 0 0)
(0 0 4.3521e-13)
(0 0 4.35296e-13)
(0 0 8.70763e-13)
(0 0 0)
(0 0 0)
(0 0 0)
(0 0 -4.35726e-13)
(0 0 4.35812e-13)
(0 0 4.35898e-13)
(0 0 0)
(0 0 0)
(0 0 0)
(0 0 4.36244e-13)
(0 0 1.30899e-12)
(0 0 1.30925e-12)
(0 0 1.74602e-12)
(0 0 1.30977e-12)
(0 0 8.73356e-13)
(0 0 4.36765e-13)
(0 0 0)
(0 0 1.31082e-12)
(0 0 8.74054e-13)
(0 0 -4.37114e-13)
(0 0 -8.74403e-13)
(0 0 -1.31187e-12)
(0 0 -8.74753e-13)
(0 0 -1.31239e-12)
(0 0 -8.75104e-13)
(0 0 -8.7528e-13)
(0 0 -1.31318e-12)
(0 0 -1.31345e-12)
(0 0 -1.75162e-12)
(0 0 -1.75197e-12)
(0 0 -3.06656e-12)
(0 0 -3.06718e-12)
(0 0 -2.19128e-12)
(0 0 -1.31504e-12)
(0 0 -1.75374e-12)
(0 0 -1.31557e-12)
(0 0 -1.31583e-12)
(0 0 -1.3161e-12)
(0 0 -8.77577e-13)
(0 0 -8.77755e-13)
(0 0 0)
(0 0 -4.39056e-13)
(0 0 0)
(0 0 -4.39234e-13)
(0 0 -8.78647e-13)
(0 0 0)
(0 0 -4.39502e-13)
(0 0 -8.79183e-13)
(0 0 -1.75873e-12)
(0 0 -8.79542e-13)
(0 0 -8.79722e-13)
(0 0 -4.39951e-13)
(0 0 0)
(0 0 4.40131e-13)
(0 0 1.32066e-12)
(0 0 1.32093e-12)
(0 0 1.3212e-12)
(0 0 1.32147e-12)
(0 0 1.32175e-12)
(0 0 8.81345e-13)
(0 0 4.40763e-13)
(0 0 4.40854e-13)
(0 0 4.40945e-13)
(0 0 8.82071e-13)
(0 0 1.32338e-12)
(0 0 8.82435e-13)
(0 0 4.41308e-13)
(0 0 4.414e-13)
(0 0 4.41491e-13)
(0 0 8.83164e-13)
(0 0 4.41674e-13)
(0 0 0)
(0 0 -8.83713e-13)
(0 0 -4.41948e-13)
(0 0 4.4204e-13)
(0 0 4.42132e-13)
(0 0 4.42224e-13)
(0 0 0)
(0 0 0)
(0 0 0)
(0 0 -4.42592e-13)
(0 0 -4.42685e-13)
(0 0 -1.32833e-12)
(0 0 -1.32861e-12)
(0 0 -1.77185e-12)
(0 0 -1.77222e-12)
(0 0 -1.77259e-12)
(0 0 -1.77296e-12)
(0 0 -8.86667e-13)
(0 0 -8.86853e-13)
(0 0 0)
(0 0 0)
(0 0 4.43706e-13)
(0 0 8.87599e-13)
(0 0 0)
(0 0 0)
(0 0 0)
(0 0 4.44174e-13)
(0 0 0)
(0 0 -8.88723e-13)
(0 0 -8.88911e-13)
(0 0 -4.44549e-13)
(0 0 0)
(0 0 8.89475e-13)
(0 0 -4.44832e-13)
(0 0 -4.44926e-13)
(0 0 -1.33506e-12)
(0 0 -2.22558e-12)
(0 0 -2.22605e-12)
(0 0 -1.78122e-12)
(0 0 -1.7816e-12)
(0 0 -1.78198e-12)
(0 0 -8.91179e-13)
(0 0 -1.33705e-12)
(0 0 -8.9156e-13)
(0 0 -8.91751e-13)
(0 0 -1.78388e-12)
(0 0 -8.92132e-13)
(0 0 -4.46162e-13)
(0 0 4.46257e-13)
(0 0 8.92706e-13)
(0 0 8.92898e-13)
(0 0 1.78618e-12)
(0 0 2.2332e-12)
(0 0 3.12716e-12)
(0 0 3.12783e-12)
(0 0 3.57543e-12)
(0 0 3.5762e-12)
(0 0 2.68273e-12)
(0 0 2.68331e-12)
(0 0 1.78926e-12)
(0 0 2.23706e-12)
(0 0 2.68505e-12)
(0 0 3.13324e-12)
(0 0 3.13392e-12)
(0 0 2.6868e-12)
(0 0 2.68738e-12)
(0 0 2.68797e-12)
(0 0 2.68855e-12)
(0 0 2.68913e-12)
(0 0 1.79315e-12)
(0 0 2.24192e-12)
(0 0 1.79393e-12)
(0 0 2.69148e-12)
(0 0 1.79471e-12)
(0 0 2.69265e-12)
(0 0 2.69324e-12)
(0 0 2.69832e-12)
(0 0 2.69442e-12)
(0 0 1.79667e-12)
(0 0 2.6956e-12)
(0 0 1.79746e-12)
(0 0 2.24732e-12)
(0 0 2.24782e-12)
(0 0 1.34899e-12)
(0 0 1.79904e-12)
(0 0 1.79944e-12)
(0 0 2.2498e-12)
(0 0 1.80023e-12)
(0 0 9.00315e-13)
(0 0 1.35077e-12)
(0 0 1.35107e-12)
(0 0 1.80182e-12)
(0 0 2.25278e-12)
(0 0 1.35197e-12)
(0 0 1.35227e-12)
(0 0 4.50856e-13)
(0 0 4.50956e-13)
(0 0 4.51056e-13)
(0 0 -4.51156e-13)
(0 0 0)
(0 0 0)
(0 0 4.51458e-13)
(0 0 4.51558e-13)
(0 0 9.03318e-13)
(0 0 1.80704e-12)
(0 0 4.51861e-13)
(0 0 0)
(0 0 4.52063e-13)
(0 0 9.04329e-13)
(0 0 4.52266e-13)
(0 0 4.52367e-13)
(0 0 4.52469e-13)
(0 0 -4.5257e-13)
(0 0 -4.52672e-13)
(0 0 -9.05548e-13)
(0 0 -4.52876e-13)
(0 0 -4.52978e-13)
(0 0 -4.5308e-13)
(0 0 -1.35955e-12)
(0 0 -1.81314e-12)
(0 0 -1.81355e-12)
(0 0 -1.36047e-12)
(0 0 -9.07185e-13)
(0 0 -1.36109e-12)
(0 0 -1.36139e-12)
(0 0 -4.53901e-13)
(0 0 -1.36201e-12)
(0 0 -1.81643e-12)
(0 0 -1.81684e-12)
(0 0 -1.81726e-12)
(0 0 -9.08835e-13)
(0 0 -9.09042e-13)
(0 0 -9.09249e-13)
(0 0 -9.09457e-13)
(0 0 -9.09665e-13)
(0 0 -4.54936e-13)
(0 0 0)
(0 0 0)
(0 0 -4.55249e-13)
(0 0 -9.10707e-13)
(0 0 -1.82183e-12)
(0 0 -9.11125e-13)
(0 0 -1.82267e-12)
(0 0 -1.36732e-12)
(0 0 -1.36763e-12)
(0 0 -9.11964e-13)
(0 0 -4.56087e-13)
(0 0 -1.82477e-12)
(0 0 -1.36889e-12)
(0 0 -1.82561e-12)
(0 0 -9.13017e-13)
(0 0 -1.36984e-12)
(0 0 -4.5672e-13)
(0 0 4.56826e-13)
(0 0 0)
(0 0 -4.57038e-13)
(0 0 0)
(0 0 0)
(0 0 -4.57357e-13)
(0 0 -4.57463e-13)
(0 0 0)
(0 0 4.57677e-13)
(0 0 9.15567e-13)
(0 0 1.37367e-12)
(0 0 0)
(0 0 9.16209e-13)
(0 0 0)
(0 0 0)
(0 0 0)
(0 0 -4.58534e-13)
(0 0 4.58642e-13)
(0 0 4.5875e-13)
(0 0 4.58858e-13)
(0 0 9.17931e-13)
(0 0 9.18148e-13)
(0 0 1.37755e-12)
(0 0 1.83716e-12)
(0 0 2.29699e-12)
(0 0 2.29754e-12)
(0 0 4.59616e-13)
(0 0 4.59725e-13)
(0 0 9.19668e-13)
(0 0 4.59943e-13)
(0 0 9.20104e-13)
(0 0 9.20323e-13)
(0 0 1.84108e-12)
(0 0 1.84152e-12)
(0 0 1.84196e-12)
(0 0 2.303e-12)
(0 0 1.84284e-12)
(0 0 1.84328e-12)
(0 0 1.84372e-12)
(0 0 1.38312e-12)
(0 0 0)
(0 0 9.2252e-13)
(0 0 0)
(0 0 0)
(0 0 -4.61592e-13)
(0 0 -4.61703e-13)
(0 0 -9.23627e-13)
(0 0 -4.61925e-13)
(0 0 0)
(0 0 9.24294e-13)
(0 0 0)
(0 0 4.6237e-13)
(0 0 -4.62482e-13)
(0 0 0)
(0 0 0)
(0 0 -4.62817e-13)
(0 0 -4.62929e-13)
(0 0 -1.38912e-12)
(0 0 -1.38946e-12)
(0 0 -1.85307e-12)
(0 0 -1.39014e-12)
(0 0 -1.85397e-12)
(0 0 -1.85442e-12)
(0 0 -1.85487e-12)
(0 0 -1.39149e-12)
(0 0 -1.39183e-12)
(0 0 -9.28114e-13)
(0 0 -9.28341e-13)
(0 0 -1.39285e-12)
(0 0 -1.85759e-12)
(0 0 -2.32256e-12)
(0 0 -2.78775e-12)
(0 0 -1.85896e-12)
(0 0 -1.85941e-12)
(0 0 -9.29935e-13)
(0 0 -4.65082e-13)
(0 0 -1.39559e-12)
(0 0 -1.39593e-12)
(0 0 -2.32713e-12)
(0 0 -2.3277e-12)
(0 0 -1.86262e-12)
(0 0 -2.32885e-12)
(0 0 -2.32943e-12)
(0 0 -2.33001e-12)
(0 0 -1.39835e-12)
(0 0 -1.3987e-12)
(0 0 -1.39904e-12)
(0 0 -2.79878e-12)
(0 0 -3.26606e-12)
(0 0 -3.73357e-12)
(0 0 -3.7345e-12)
(0 0 -3.73543e-12)
(0 0 -3.26931e-12)
(0 0 -3.27013e-12)
(0 0 -3.27095e-12)
(0 0 -3.27176e-12)
(0 0 -3.7401e-12)
(0 0 -3.74103e-12)
(0 0 -3.74197e-12)
(0 0 -3.27505e-12)
(0 0 -2.80789e-12)
(0 0 -3.27669e-12)
(0 0 -3.74573e-12)
(0 0 -3.74667e-12)
(0 0 -4.68452e-12)
(0 0 -4.21713e-12)
(0 0 -4.2182e-12)
(0 0 -4.21926e-12)
(0 0 -4.22033e-12)
(0 0 -3.28331e-12)
(0 0 -2.34581e-12)
(0 0 -1.87713e-12)
(0 0 -9.38801e-13)
(0 0 -9.3904e-13)
(0 0 -1.40892e-12)
(0 0 -4.69758e-13)
(0 0 0)
(0 0 9.39995e-13)