/*--------------------------------*- C++ -*----------------------------------*\
| =========                 |                                                 |
| \\      /  F ield         | OpenFOAM: The Open Source CFD Toolbox           |
|  \\    /   O peration     | Version:  2.3.1                                 |
|   \\  /    A nd           | Web:      www.OpenFOAM.org                      |
|    \\/     M anipulation  |                                                 |
\*---------------------------------------------------------------------------*/
FoamFile
{
    version     2.0;
    format      ascii;
    class       volScalarField;
    object      T;
}
// * * * * * * * * * * * * * * * * * * * * * * * * * * * * * * * * * * * * * //

dimensions      [0 0 0 1 0 0 0];

internalField   nonuniform List<scalar>
10000
(
64.348368
64.371735
64.395103
64.418470
64.441838
64.465205
64.488573
64.511940
64.535308
64.558675
64.582043
64.605410
64.628778
64.652145
64.675513
64.698880
64.722248
64.745615
64.768983
64.792350
64.815718
64.839085
64.862453
64.885820
64.909188
64.932555
64.955923
64.979290
65.002658
65.026025
65.049393
65.072760
65.096128
65.119495
65.142863
65.166230
65.189598
65.212965
65.236333
65.259700
65.283068
65.306435
65.329803
65.353170
65.376538
65.399905
65.423273
65.446640
65.470008
65.493375
65.516743
65.540110
65.563478
65.586845
65.610213
65.633580
65.656948
65.680315
65.703683
65.727050
65.750418
65.773785
65.797153
65.820520
65.843888
65.867255
65.890623
65.913990
65.937358
65.960725
65.984093
66.007460
66.030828
66.054195
66.077563
66.100930
66.124298
66.147665
66.171033
66.194400
66.217768
66.241135
66.264503
66.287870
66.311238
66.334605
66.357973
66.381340
66.404708
66.428075
66.451443
66.474810
66.498178
66.521545
66.544913
66.568280
66.591648
66.615015
66.638383
66.661750
66.685118
66.708485
66.731853
66.755220
66.778588
66.801955
66.825323
66.848690
66.872058
66.895425
66.918793
66.942160
66.965528
66.988895
67.012263
67.035630
67.058998
67.082365
67.105733
67.129100
67.152468
67.175835
67.199203
67.222570
67.245938
67.269305
67.292673
67.316040
67.339408
67.362775
67.386143
67.409510
67.432878
67.456245
67.479613
67.502980
67.526348
67.549715
67.573083
67.596450
67.619818
67.643185
67.666553
67.689920
67.713288
67.736655
67.760023
67.783390
67.806758
67.830125
67.853493
67.876860
67.900228
67.923595
67.946963
67.970330
67.993698
68.017065
68.040433
68.063800
68.087168
68.110535
68.133903
68.157270
68.180638
68.204005
68.227373
68.250740
68.274108
68.297475
68.320843
68.344210
68.367578
68.390945
68.414313
68.437680
68.461048
68.484415
68.507783
68.531150
68.554518
68.577885
68.601253
68.624620
68.647988
68.671355
68.694723
68.718090
68.741458
68.764825
68.788193
68.811560
68.834928
68.858295
68.881663
68.905030
68.928398
68.951765
68.975133
68.998500
69.021868
69.045235
69.068603
69.091970
69.115338
69.138705
69.162073
69.185440
69.208808
69.232175
69.255543
69.278910
69.302278
69.325645
69.349013
69.372380
69.395748
69.419115
69.442483
69.465850
69.489218
69.512585
69.535953
69.559320
69.582688
69.606055
69.629423
69.652790
69.676158
69.699525
69.722893
69.746260
69.769628
69.792995
69.816363
69.839730
69.863098
69.886465
69.909833
69.933200
69.956568
69.979935
70.003303
70.026670
70.050038
70.073405
70.096773
70.120140
70.143508
70.166875
70.190243
70.213610
70.236978
70.260345
70.283713
70.307080
70.330448
70.353815
70.377183
70.400550
70.423918
70.447285
70.470653
70.494020
70.517388
70.540755
70.564123
70.587490
70.610858
70.634225
70.657593
70.680960
70.704328
70.727695
70.751063
70.774430
70.797798
70.821165
70.844533
70.867900
70.891268
70.914635
70.938003
70.961370
70.984738
71.008105
71.031473
71.054840
71.078208
71.101575
71.124943
71.148310
71.171678
71.195045
71.218413
71.241780
71.265148
71.288515
71.311883
71.335250
71.358618
71.381985
71.405353
71.428720
71.452088
71.475455
71.498823
71.522190
71.545558
71.568925
71.592293
71.615660
71.639028
71.662395
71.685763
71.709130
71.732498
71.755865
71.779233
71.802600
71.825968
71.849335
71.872703
71.896070
71.919438
71.942805
71.966173
71.989540
72.012908
72.036275
72.059643
72.083010
72.106378
72.129745
72.153113
72.176480
72.199848
72.223215
72.246583
72.269950
72.293318
72.316685
72.340053
72.363420
72.386788
72.410155
72.433523
72.456890
72.480258
72.503625
72.526993
72.550360
72.573728
72.597095
72.620463
72.643830
72.667198
72.690565
72.713933
72.737300
72.760668
72.784035
72.807403
72.830770
72.854138
72.877505
72.900873
72.924240
72.947608
72.970975
72.994343
73.017710
73.041078
73.064445
73.087813
73.111180
73.134548
73.157915
73.181283
73.204650
73.228018
73.251385
73.274753
73.298120
73.321488
73.344855
73.368223
73.391590
73.414958
73.438325
73.461693
73.485060
73.508428
73.531795
73.555163
73.578530
73.601898
73.625265
73.648633
73.672000
73.695368
73.718735
73.742103
73.765470
73.788838
73.812205
73.835573
73.858940
73.882308
73.905675
73.929043
73.952410
73.975778
73.999145
74.022513
74.045880
74.069248
74.092615
74.115983
74.139350
74.162718
74.186085
74.209453
74.232820
74.256188
74.279555
74.302923
74.326290
74.349658
74.373025
74.396393
74.419760
74.443128
74.466495
74.489863
74.513230
74.536598
74.559965
74.583333
74.606700
74.630068
74.653435
74.676803
74.700170
74.723538
74.746905
74.770273
74.793640
74.817008
74.840375
74.863743
74.887110
74.910478
74.933845
74.957213
74.980580
75.003948
75.027315
75.050683
75.074050
75.097418
75.120785
75.144153
75.167520
75.190888
75.214255
75.237623
75.260990
75.284358
75.307725
75.331093
75.354460
75.377828
75.401195
75.424563
75.447930
75.471298
75.494665
75.518033
75.541400
75.564768
75.588135
75.611503
75.634870
75.658238
75.681605
75.704973
75.728340
75.751708
75.775075
75.798443
75.821810
75.845178
75.868545
75.891913
75.915280
75.938648
75.962015
75.985383
76.068000
76.032118
76.055485
76.078853
76.102220
76.125588
76.148955
76.172323
76.195690
76.219058
76.242425
76.265793
76.289160
76.312528
76.335895
76.359263
76.382630
76.405998
76.429365
76.452733
76.476100
76.499468
76.522835
76.546203
76.569570
76.592938
76.616305
76.639673
76.663040
76.686408
76.709775
76.733143
76.756510
76.779878
76.803245
76.826613
76.849980
76.873348
76.896715
76.920083
76.943450
76.966818
76.990185
77.013553
77.036920
77.060288
77.083655
77.107023
77.130390
77.153758
77.177125
77.200493
77.223860
77.247228
77.270595
77.293963
77.317330
77.340698
77.364065
77.387433
77.410800
77.434168
77.457535
77.480903
77.504270
77.527638
77.551005
77.574373
77.597740
77.621108
77.644475
77.667843
77.691210
77.714578
77.737945
77.761313
77.784680
77.808048
77.831415
77.854783
77.878150
77.901518
77.924885
77.948253
77.971620
77.994988
78.018355
78.041723
78.065090
78.088458
78.111825
78.135193
78.158560
78.181928
78.205295
78.228663
78.252030
78.275398
78.298765
78.322133
78.345500
78.368868
78.392235
78.415603
78.438970
78.462338
78.485705
78.509073
78.532440
78.555808
78.579175
78.602543
78.625910
78.649278
78.672645
78.696013
78.719380
78.742748
78.766115
78.789483
78.812850
78.836218
78.859585
78.882953
78.906320
78.929688
78.953055
78.976423
78.999790
79.023158
79.046525
79.069893
79.093260
79.116628
79.139995
79.163363
79.186730
79.210098
79.233465
79.256833
79.280200
79.303568
79.326935
79.350303
79.373670
79.397038
79.420405
79.443773
79.467140
79.490508
79.513875
79.537243
79.560610
79.583978
79.607345
79.630713
79.654080
79.677448
79.700815
79.724183
79.747550
79.770918
79.794285
79.817653
79.841020
79.864388
79.887755
79.911123
79.934490
79.957858
79.981225
80.004593
80.027960
80.051328
80.074695
80.098063
80.121430
80.144798
80.168165
80.191533
80.214900
80.238268
80.261635
80.285003
80.308370
80.331738
80.355105
80.378473
80.401840
80.425208
80.448575
80.471943
80.495310
80.518678
80.542045
80.565413
80.588780
80.612148
80.635515
80.658883
80.682250
80.705618
80.728985
80.752353
80.775720
80.799088
80.822455
80.845823
80.869190
80.892558
80.915925
80.939293
80.962660
80.986028
81.009395
81.032763
81.056130
81.079498
81.102865
81.126233
81.149600
81.172968
81.196335
81.219703
81.243070
81.266438
81.289805
81.313173
81.336540
81.359908
81.383275
81.406643
81.430010
81.453378
81.476745
81.500113
81.523480
81.546848
81.570215
81.593583
81.616950
81.640318
81.663685
81.687053
81.710420
81.733788
81.757155
81.780523
81.803890
81.827258
81.850625
81.873993
81.897360
81.920728
81.944095
81.967463
81.990830
82.014198
82.037565
82.060933
82.084300
82.107668
82.131035
82.154403
82.177770
82.201138
82.224505
82.247873
82.271240
82.294608
82.317975
82.341343
82.364710
82.388078
82.411445
82.434813
82.458180
82.481548
82.504915
82.528283
82.551650
82.575018
82.598385
82.621753
82.645120
82.668488
82.691855
82.715223
82.738590
82.761958
82.785325
82.808693
82.832060
82.855428
82.878795
82.902163
82.925530
82.948898
82.972265
82.995633
83.019000
83.042368
83.065735
83.089103
83.112470
83.135838
83.159205
83.182573
83.205940
83.229308
83.252675
83.276043
83.299410
83.322778
83.346145
83.369513
83.392880
83.416248
83.439615
83.462983
83.486350
83.509718
83.533085
83.556453
83.579820
83.603188
83.626555
83.649923
83.673290
83.696658
83.720025
83.743393
83.766760
83.790128
83.813495
83.836863
83.860230
83.883598
83.906965
83.930333
83.953700
83.977068
84.000435
84.023803
84.047170
84.070538
84.093905
84.117273
84.140640
84.164008
84.187375
84.210743
84.234110
84.257478
84.280845
84.304213
84.327580
84.350948
84.374315
84.397683
84.421050
84.444418
84.467785
84.491153
84.514520
84.537888
84.561255
84.584623
84.607990
84.631358
84.654725
84.678093
84.701460
84.724828
84.748195
84.771563
84.794930
84.818298
84.841665
84.865033
84.888400
84.911768
84.935135
84.958503
84.981870
85.005238
85.028605
85.051973
85.075340
85.098708
85.122075
85.145443
85.168810
85.192178
85.215545
85.238913
85.262280
85.285648
85.309015
85.332383
85.355750
85.379118
85.402485
85.425853
85.449220
85.472588
85.495955
85.519323
85.542690
85.566058
85.589425
85.612793
85.636160
85.659528
85.682895
85.706263
85.729630
85.752998
85.776365
85.799733
85.823100
85.846468
85.869835
85.893203
85.916570
85.939938
85.963305
85.986673
86.010040
86.033408
86.056775
86.080143
86.103510
86.126878
86.150245
86.173613
86.196980
86.220348
86.243715
86.267083
86.290450
86.313818
86.337185
86.360553
86.383920
86.407288
86.430655
86.454023
86.477390
86.500758
86.524125
86.547493
86.570860
86.594228
86.617595
86.640963
86.664330
86.687698
86.711065
86.734433
86.757800
86.781168
86.804535
86.827903
86.851270
86.874638
86.898005
86.921373
86.944740
86.968108
86.991475
87.014843
87.038210
87.061578
87.084945
87.108313
87.131680
87.155048
87.178415
87.201783
87.225150
87.248518
87.271885
87.295253
87.318620
87.341988
87.365355
87.388723
87.412090
87.435458
87.458825
87.482193
87.505560
87.528928
87.552295
87.575663
87.599030
87.622398
87.645765
87.669133
87.810000
87.715868
87.739235
87.762603
87.785970
87.809338
87.832705
87.856073
87.879440
87.902808
87.926175
87.949543
87.972910
87.996278
88.019645
88.043013
88.066380
88.089748
88.113115
88.136483
88.159850
88.183218
88.206585
88.229953
88.253320
88.276688
88.300055
88.323423
88.346790
88.370158
88.393525
88.416893
88.440260
88.463628
88.486995
88.510363
88.533730
88.557098
88.580465
88.603833
88.627200
88.650568
88.673935
88.697303
88.720670
88.744038
88.767405
88.790773
88.814140
88.837508
88.860875
88.884243
88.907610
88.930978
88.954345
88.977713
89.001080
89.024448
89.047815
89.071183
89.094550
89.117918
89.141285
89.164653
89.188020
89.211388
89.234755
89.258123
89.281490
89.304858
89.328225
89.351593
89.374960
89.398328
89.421695
89.445063
89.468430
89.491798
89.515165
89.538533
89.561900
89.585268
89.608635
89.632003
89.655370
89.678738
89.702105
89.725473
89.748840
89.772208
89.795575
89.818943
89.842310
89.865678
89.889045
89.912413
89.935780
89.959148
89.982515
90.005883
90.029250
90.052618
90.075985
90.099353
90.122720
90.146088
90.169455
90.192823
90.216190
90.239558
90.262925
90.286293
90.309660
90.333028
90.356395
90.379763
90.403130
90.426498
90.449865
90.473233
90.496600
90.519968
90.543335
90.566703
90.590070
90.613438
90.636805
90.660173
90.683540
90.706908
90.730275
90.753643
90.777010
90.800378
90.823745
90.847113
90.870480
90.893848
90.917215
90.940583
90.963950
90.987318
91.010685
91.034053
91.057420
91.080788
91.104155
91.127523
91.150890
91.174258
91.197625
91.220993
91.244360
91.267728
91.291095
91.314463
91.337830
91.361198
91.384565
91.407933
91.431300
91.454668
91.478035
91.501403
91.524770
91.548138
91.571505
91.594873
91.618240
91.641608
91.664975
91.688343
91.711710
91.735078
91.758445
91.781813
91.805180
91.828548
91.851915
91.875283
91.898650
91.922018
91.945385
91.968753
91.992120
92.015488
92.038855
92.062223
92.085590
92.108958
92.132325
92.155693
92.179060
92.202428
92.225795
92.249163
92.272530
92.295898
92.319265
92.342633
92.366000
92.389368
92.412735
92.436103
92.459470
92.482838
92.506205
92.529573
92.552940
92.576308
92.599675
92.623043
92.646410
92.669778
92.693145
92.716513
92.739880
92.763248
92.786615
92.809983
92.833350
92.856718
92.880085
92.903453
92.926820
92.950188
92.973555
92.996923
93.020290
93.043658
93.067025
93.090393
93.113760
93.137128
93.160495
93.183863
93.207230
93.230598
93.253965
93.277333
93.300700
93.324068
93.347435
93.370803
93.394170
93.417538
93.440905
93.464273
93.487640
93.511008
93.534375
93.557743
93.581110
93.604478
93.627845
93.651213
93.674580
93.697948
93.721315
93.744683
93.768050
93.791418
93.814785
93.838153
93.861520
93.884888
93.908255
93.931623
93.954990
93.978358
94.001725
94.025093
94.048460
94.071828
94.095195
94.118563
94.141930
94.165298
94.188665
94.212033
94.235400
94.258768
94.282135
94.305503
94.328870
94.352238
94.375605
94.398973
94.422340
94.445708
94.469075
94.492443
94.515810
94.539178
94.562545
94.585913
94.609280
94.632648
94.656015
94.679383
94.702750
94.726118
94.749485
94.772853
94.796220
94.819588
94.842955
94.866323
94.889690
94.913058
94.936425
94.959793
94.983160
95.006528
95.029895
95.053263
95.076630
95.099998
95.123365
95.146733
95.170100
95.193468
95.216835
95.240203
95.263570
95.286938
95.310305
95.333673
95.357040
95.380408
95.403775
95.427143
95.450510
95.473878
95.497245
95.520613
95.543980
95.567348
95.590715
95.614083
95.637450
95.660818
95.684185
95.707553
95.730920
95.754288
95.777655
95.801023
95.824390
95.847758
95.871125
95.894493
95.917860
95.941228
95.964595
95.987963
96.011330
96.034698
96.058065
96.081433
96.104800
96.128168
96.151535
96.174903
96.198270
96.221638
96.245005
96.268373
96.291740
96.315108
96.338475
96.361843
96.385210
96.408578
96.431945
96.455313
96.478680
96.502048
96.525415
96.548783
96.572150
96.595518
96.618885
96.642253
96.665620
96.688988
96.712355
96.735723
96.759090
96.782458
96.805825
96.829193
96.852560
96.875928
96.899295
96.922663
96.946030
96.969398
96.992765
97.016133
97.039500
97.062868
97.086235
97.109603
97.132970
97.156338
97.179705
97.203073
97.226440
97.249808
97.273175
97.296543
97.319910
97.343278
97.366645
97.390013
97.413380
97.436748
97.460115
97.483483
97.506850
97.530218
97.553585
97.576953
97.600320
97.623688
97.647055
97.670423
97.693790
97.717158
97.740525
97.763893
97.787260
97.810628
97.833995
97.857363
97.880730
97.904098
97.927465
97.950833
97.974200
97.997568
98.020935
98.044303
98.067670
98.091038
98.114405
98.137773
98.161140
98.184508
98.207875
98.231243
98.254610
98.277978
98.301345
98.324713
98.348080
98.371448
98.394815
98.418183
98.441550
98.464918
98.488285
98.511653
98.535020
98.558388
98.581755
98.605123
98.628490
98.651858
98.675225
98.698593
98.721960
98.745328
98.768695
98.792063
98.815430
98.838798
98.862165
98.885533
98.908900
98.932268
98.955635
98.979003
99.002370
99.025738
99.049105
99.072473
99.095840
99.119208
99.142575
99.165943
99.189310
99.212678
99.236045
99.259413
99.282780
99.306148
99.329515
99.352883
99.553000
99.399618
99.422985
99.446353
99.469720
99.493088
99.516455
99.539823
99.563190
99.586558
99.609925
99.633293
99.656660
99.680028
99.703395
99.726763
99.750130
99.773498
99.796865
99.820233
99.843600
99.866968
99.890335
99.913703
99.937070
99.960438
99.983805
100.007173
100.030540
100.053908
100.077275
100.100643
100.124010
100.147378
100.170745
100.194113
100.217480
100.240848
100.264215
100.287583
100.310950
100.334318
100.357685
100.381053
100.404420
100.427788
100.451155
100.474523
100.497890
100.521258
100.544625
100.567993
100.591360
100.614728
100.638095
100.661463
100.684830
100.708198
100.731565
100.754933
100.778300
100.801668
100.825035
100.848403
100.871770
100.895138
100.918505
100.941873
100.965240
100.988608
101.011975
101.035343
101.058710
101.082078
101.105445
101.128813
101.152180
101.175548
101.198915
101.222283
101.245650
101.269018
101.292385
101.315753
101.339120
101.362488
101.385855
101.409223
101.432590
101.455958
101.479325
101.502693
101.526060
101.549428
101.572795
101.596163
101.619530
101.642898
101.666265
101.689633
101.713000
101.736368
101.759735
101.783103
101.806470
101.829838
101.853205
101.876573
101.899940
101.923308
101.946675
101.970043
101.993410
102.016778
102.040145
102.063513
102.086880
102.110248
102.133615
102.156983
102.180350
102.203718
102.227085
102.250453
102.273820
102.297188
102.320555
102.343923
102.367290
102.390658
102.414025
102.437393
102.460760
102.484128
102.507495
102.530863
102.554230
102.577598
102.600965
102.624333
102.647700
102.671068
102.694435
102.717803
102.741170
102.764538
102.787905
102.811273
102.834640
102.858008
102.881375
102.904743
102.928110
102.951478
102.974845
102.998213
103.021580
103.044948
103.068315
103.091683
103.115050
103.138418
103.161785
103.185153
103.208520
103.231888
103.255255
103.278623
103.301990
103.325358
103.348725
103.372093
103.395460
103.418828
103.442195
103.465563
103.488930
103.512298
103.535665
103.559033
103.582400
103.605768
103.629135
103.652503
103.675870
103.699238
103.722605
103.745973
103.769340
103.792708
103.816075
103.839443
103.862810
103.886178
103.909545
103.932913
103.956280
103.979648
104.003015
104.026383
104.049750
104.073118
104.096485
104.119853
104.143220
104.166588
104.189955
104.213323
104.236690
104.260058
104.283425
104.306793
104.330160
104.353528
104.376895
104.400263
104.423630
104.446998
104.470365
104.493733
104.517100
104.540468
104.563835
104.587203
104.610570
104.633938
104.657305
104.680673
104.704040
104.727408
104.750775
104.774143
104.797510
104.820878
104.844245
104.867613
104.890980
104.914348
104.937715
104.961083
104.984450
105.007818
105.031185
105.054553
105.077920
105.101288
105.124655
105.148023
105.171390
105.194758
105.218125
105.241493
105.264860
105.288228
105.311595
105.334963
105.358330
105.381698
105.405065
105.428433
105.451800
105.475168
105.498535
105.521903
105.545270
105.568638
105.592005
105.615373
105.638740
105.662108
105.685475
105.708843
105.732210
105.755578
105.778945
105.802313
105.825680
105.849048
105.872415
105.895783
105.919150
105.942518
105.965885
105.989253
106.012620
106.035988
106.059355
106.082723
106.106090
106.129458
106.152825
106.176193
106.199560
106.222928
106.246295
106.269663
106.293030
106.316398
106.339765
106.363133
106.386500
106.409868
106.433235
106.456603
106.479970
106.503338
106.526705
106.550073
106.573440
106.596808
106.620175
106.643543
106.666910
106.690278
106.713645
106.737013
106.760380
106.783748
106.807115
106.830483
106.853850
106.877218
106.900585
106.923953
106.947320
106.970688
106.994055
107.017423
107.040790
107.064158
107.087525
107.110893
107.134260
107.157628
107.180995
107.204363
107.227730
107.251098
107.274465
107.297833
107.321200
107.344568
107.367935
107.391303
107.414670
107.438038
107.461405
107.484773
107.508140
107.531508
107.554875
107.578243
107.601610
107.624978
107.648345
107.671713
107.695080
107.718448
107.741815
107.765183
107.788550
107.811918
107.835285
107.858653
107.882020
107.905388
107.928755
107.952123
107.975490
107.998858
108.022225
108.045593
108.068960
108.092328
108.115695
108.139063
108.162430
108.185798
108.209165
108.232533
108.255900
108.279268
108.302635
108.326003
108.349370
108.372738
108.396105
108.419473
108.442840
108.466208
108.489575
108.512943
108.536310
108.559678
108.583045
108.606413
108.629780
108.653148
108.676515
108.699883
108.723250
108.746618
108.769985
108.793353
108.816720
108.840088
108.863455
108.886823
108.910190
108.933558
108.956925
108.980293
109.003660
109.027028
109.050395
109.073763
109.097130
109.120498
109.143865
109.167233
109.190600
109.213968
109.237335
109.260703
109.284070
109.307438
109.330805
109.354173
109.377540
109.400908
109.424275
109.447643
109.471010
109.494378
109.517745
109.541113
109.564480
109.587848
109.611215
109.634583
109.657950
109.681318
109.704685
109.728053
109.751420
109.774788
109.798155
109.821523
109.844890
109.868258
109.891625
109.914993
109.938360
109.961728
109.985095
110.008463
110.031830
110.055198
110.078565
110.101933
110.125300
110.148668
110.172035
110.195403
110.218770
110.242138
110.265505
110.288873
110.312240
110.335608
110.358975
110.382343
110.405710
110.429078
110.452445
110.475813
110.499180
110.522548
110.545915
110.569283
110.592650
110.616018
110.639385
110.662753
110.686120
110.709488
110.732855
110.756223
110.779590
110.802958
110.826325
110.849693
110.873060
110.896428
110.919795
110.943163
110.966530
110.989898
111.013265
111.036633
110.900000
111.083368
111.106735
111.130103
111.153470
111.176838
111.200205
111.223573
111.246940
111.270308
111.293675
111.317043
111.340410
111.363778
111.387145
111.410513
111.433880
111.457248
111.480615
111.503983
111.527350
111.550718
111.574085
111.597453
111.620820
111.644188
111.667555
111.690923
111.714290
111.737658
111.761025
111.784393
111.807760
111.831128
111.854495
111.877863
111.901230
111.924598
111.947965
111.971333
111.994700
112.018068
112.041435
112.064803
112.088170
112.111538
112.134905
112.158273
112.181640
112.205008
112.228375
112.251743
112.275110
112.298478
112.321845
112.345213
112.368580
112.391948
112.415315
112.438683
112.462050
112.485418
112.508785
112.532153
112.555520
112.578888
112.602255
112.625623
112.648990
112.672358
112.695725
112.719093
112.742460
112.765828
112.789195
112.812563
112.835930
112.859298
112.882665
112.906033
112.929400
112.952768
112.976135
112.999503
113.022870
113.046238
113.069605
113.092973
113.116340
113.139708
113.163075
113.186443
113.209810
113.233178
113.256545
113.279913
113.303280
113.326648
113.350015
113.373383
113.396750
113.420118
113.443485
113.466853
113.490220
113.513588
113.536955
113.560323
113.583690
113.607058
113.630425
113.653793
113.677160
113.700528
113.723895
113.747263
113.770630
113.793998
113.817365
113.840733
113.864100
113.887468
113.910835
113.934203
113.957570
113.980938
114.004305
114.027673
114.051040
114.074408
114.097775
114.121143
114.144510
114.167878
114.191245
114.214613
114.237980
114.261348
114.284715
114.308083
114.331450
114.354818
114.378185
114.401553
114.424920
114.448288
114.471655
114.495023
114.518390
114.541758
114.565125
114.588493
114.611860
114.635228
114.658595
114.681963
114.705330
114.728698
114.752065
114.775433
114.798800
114.822168
114.845535
114.868903
114.892270
114.915638
114.939005
114.962373
114.985740
115.009108
115.032475
115.055843
115.079210
115.102578
115.125945
115.149313
115.172680
115.196048
115.219415
115.242783
115.266150
115.289518
115.312885
115.336253
115.359620
115.382988
115.406355
115.429723
115.453090
115.476458
115.499825
115.523193
115.546560
115.569928
115.593295
115.616663
115.640030
115.663398
115.686765
115.710133
115.733500
115.756868
115.780235
115.803603
115.826970
115.850338
115.873705
115.897073
115.920440
115.943808
115.967175
115.990543
116.013910
116.037278
116.060645
116.084013
116.107380
116.130748
116.154115
116.177483
116.200850
116.224218
116.247585
116.270953
116.294320
116.317688
116.341055
116.364423
116.387790
116.411158
116.434525
116.457893
116.481260
116.504628
116.527995
116.551363
116.574730
116.598098
116.621465
116.644833
116.668200
116.691568
116.714935
116.738303
116.761670
116.785038
116.808405
116.831773
116.855140
116.878508
116.901875
116.925243
116.948610
116.971978
116.995345
117.018713
117.042080
117.065448
117.088815
117.112183
117.135550
117.158918
117.182285
117.205653
117.229020
117.252388
117.275755
117.299123
117.322490
117.345858
117.369225
117.392593
117.415960
117.439328
117.462695
117.486063
117.509430
117.532798
117.556165
117.579533
117.602900
117.626268
117.649635
117.673003
117.696370
117.719738
117.743105
117.766473
117.789840
117.813208
117.836575
117.859943
117.883310
117.906678
117.930045
117.953413
117.976780
118.000148
118.023515
118.046883
118.070250
118.093618
118.116985
118.140353
118.163720
118.187088
118.210455
118.233823
118.257190
118.280558
118.303925
118.327293
118.350660
118.374028
118.397395
118.420763
118.444130
118.467498
118.490865
118.514233
118.537600
118.560968
118.584335
118.607703
118.631070
118.654438
118.677805
118.701173
118.724540
118.747908
118.771275
118.794643
118.818010
118.841378
118.864745
118.888113
118.911480
118.934848
118.958215
118.981583
119.004950
119.028318
119.051685
119.075053
119.098420
119.121788
119.145155
119.168523
119.191890
119.215258
119.238625
119.261993
119.285360
119.308728
119.332095
119.355463
119.378830
119.402198
119.425565
119.448933
119.472300
119.495668
119.519035
119.542403
119.565770
119.589138
119.612505
119.635873
119.659240
119.682608
119.705975
119.729343
119.752710
119.776078
119.799445
119.822813
119.846180
119.869548
119.892915
119.916283
119.939650
119.963018
119.986385
120.009753
120.033120
120.056488
120.079855
120.103223
120.126590
120.149958
120.173325
120.196693
120.220060
120.243428
120.266795
120.290163
120.313530
120.336898
120.360265
120.383633
120.407000
120.430368
120.453735
120.477103
120.500470
120.523838
120.547205
120.570573
120.593940
120.617308
120.640675
120.664043
120.687410
120.710778
120.734145
120.757513
120.780880
120.804248
120.827615
120.850983
120.874350
120.897718
120.921085
120.944453
120.967820
120.991188
121.014555
121.037923
121.061290
121.084658
121.108025
121.131393
121.154760
121.178128
121.201495
121.224863
121.248230
121.271598
121.294965
121.318333
121.341700
121.365068
121.388435
121.411803
121.435170
121.458538
121.481905
121.505273
121.528640
121.552008
121.575375
121.598743
121.622110
121.645478
121.668845
121.692213
121.715580
121.738948
121.762315
121.785683
121.809050
121.832418
121.855785
121.879153
121.902520
121.925888
121.949255
121.972623
121.995990
122.019358
122.042725
122.066093
122.089460
122.112828
122.136195
122.159563
122.182930
122.206298
122.229665
122.253033
122.276400
122.299768
122.323135
122.346503
122.369870
122.393238
122.416605
122.439973
122.463340
122.486708
122.510075
122.533443
122.556810
122.580178
122.603545
122.626913
122.650280
122.673648
122.697015
122.720383
122.650000
122.767118
122.790485
122.813853
122.837220
122.860588
122.883955
122.907323
122.930690
122.954058
122.977425
123.000793
123.024160
123.047528
123.070895
123.094263
123.117630
123.140998
123.164365
123.187733
123.211100
123.234468
123.257835
123.281203
123.304570
123.327938
123.351305
123.374673
123.398040
123.421408
123.444775
123.468143
123.491510
123.514878
123.538245
123.561613
123.584980
123.608348
123.631715
123.655083
123.678450
123.701818
123.725185
123.748553
123.771920
123.795288
123.818655
123.842023
123.865390
123.888758
123.912125
123.820000
123.958860
123.982228
124.005595
124.028963
124.052330
124.075698
124.099065
124.122433
124.145800
124.169168
124.192535
124.215903
124.239270
124.262638
124.286005
124.309373
124.332740
124.356108
124.379475
124.402843
124.426210
124.449578
124.472945
124.496313
124.519680
124.543048
124.566415
124.589783
124.613150
124.636518
124.659885
124.683253
124.706620
124.729988
124.753355
124.776723
124.800090
124.823458
124.846825
124.870193
124.893560
124.916928
124.940295
124.963663
124.987030
125.010398
125.033765
125.057133
124.990000
125.103868
125.127235
125.150603
125.173970
125.197338
125.220705
125.244073
125.267440
125.290808
125.314175
125.337543
125.360910
125.384278
125.407645
125.431013
125.454380
125.477748
125.501115
125.524483
125.547850
125.571218
125.594585
125.617953
125.641320
125.664688
125.688055
125.711423
125.734790
125.758158
125.781525
125.804893
125.828260
125.851628
125.874995
125.898363
125.921730
125.945098
125.968465
125.991833
126.015200
126.038568
126.061935
126.085303
126.108670
126.132038
126.155405
126.178773
126.202140
126.225508
126.248875
126.170000
126.295610
126.318978
126.342345
126.365713
126.389080
126.412448
126.435815
126.459183
126.482550
126.505918
126.529285
126.552653
126.576020
126.599388
126.622755
126.646123
126.669490
126.692858
126.716225
126.739593
126.762960
126.786328
126.809695
126.833063
126.856430
126.879798
126.903165
126.926533
126.949900
126.973268
126.996635
127.020003
127.043370
127.066738
127.090105
127.113473
127.136840
127.160208
127.183575
127.206943
127.230310
127.253678
127.277045
127.300413
127.323780
127.347148
127.370515
127.393883
127.340000
127.440618
127.463985
127.487353
127.510720
127.534088
127.557455
127.580823
127.604190
127.627558
127.650925
127.674293
127.697660
127.721028
127.744395
127.767763
127.791130
127.814498
127.837865
127.861233
127.884600
127.907968
127.931335
127.954703
127.978070
128.001438
128.024805
128.048173
128.071540
128.094908
128.118275
128.141643
128.165010
128.188378
128.211745
128.235113
128.258480
128.281848
128.305215
128.328583
128.351950
128.375318
128.398685
128.422053
128.445420
128.468788
128.492155
128.515523
128.538890
128.562258
128.520000
128.608993
128.632360
128.655728
128.679095
128.702463
128.725830
128.749198
128.772565
128.795933
128.819300
128.842668
128.866035
128.889403
128.912770
128.936138
128.959505
128.982873
129.006240
129.029608
129.052975
129.076343
129.099710
129.123078
129.146445
129.169813
129.193180
129.216548
129.239915
129.263283
129.286650
129.310018
129.333385
129.356753
129.380120
129.403488
129.426855
129.450223
129.473590
129.496958
129.520325