/*--------------------------------*- C++ -*----------------------------------*\
| =========                 |                                                 |
| \\      /  F ield         | OpenFOAM: The Open Source CFD Toolbox           |
|  \\    /   O peration     | Version:  2.3.0                                 |
|   \\  /    A nd           | Web:      www.OpenFOAM.org                      |
|    \\/     M anipulation  |                                                 |
\*---------------------------------------------------------------------------*/
FoamFile
{
    version     2.0;
    format      ascii;
    class       volScalarField;
    location    "0";
    object      thermo:Cp;
}
// * * * * * * * * * * * * * * * * * * * * * * * * * * * * * * * * * * * * * //

dimensions      [0 2 -2 -1 0 0 0];

internalField   nonuniform List<scalar> 
10000
(
1674.81
1674.85
1674.89
1674.93
1674.97
1675.01
1675.05
1675.09
1675.13
1675.17
1675.2
1675.24
1675.28
1675.32
1675.36
1675.4
1675.45
1675.49
1675.53
1675.57
1675.61
1675.65
1675.69
1675.73
1675.77
1675.81
1675.85
1675.9
1675.94
1675.98
1676.02
1676.06
1676.11
1676.15
1676.19
1676.23
1676.28
1676.32
1676.36
1676.4
1676.45
1676.49
1676.53
1676.58
1676.62
1676.67
1676.71
1676.75
1676.8
1676.84
1676.89
1676.93
1676.97
1677.02
1677.06
1677.11
1677.15
1677.2
1677.24
1677.29
1677.33
1677.38
1677.43
1677.47
1677.52
1677.56
1677.61
1677.66
1677.7
1677.75
1677.8
1677.84
1677.89
1677.94
1677.98
1678.03
1678.08
1678.13
1678.17
1678.22
1678.27
1678.32
1678.36
1678.41
1678.46
1678.51
1678.56
1678.61
1678.66
1678.7
1678.75
1678.8
1678.85
1678.9
1678.95
1679
1679.05
1679.1
1679.15
1679.2
1679.25
1679.3
1679.35
1679.4
1679.45
1679.5
1679.55
1679.6
1679.66
1679.71
1679.76
1679.81
1679.86
1679.91
1679.96
1680.02
1680.07
1680.12
1680.17
1680.23
1680.28
1680.33
1680.38
1680.44
1680.49
1680.54
1680.6
1680.65
1680.7
1680.76
1680.81
1680.86
1680.92
1680.97
1681.03
1681.08
1681.14
1681.19
1681.25
1681.3
1681.35
1681.41
1681.47
1681.52
1681.58
1681.63
1681.69
1681.74
1681.8
1681.86
1681.91
1681.97
1682.02
1682.08
1682.14
1682.19
1682.25
1682.31
1682.36
1682.42
1682.48
1682.54
1682.59
1682.65
1682.71
1682.77
1682.83
1682.88
1682.94
1683
1683.06
1683.12
1683.18
1683.24
1683.3
1683.36
1683.41
1683.47
1683.53
1683.59
1683.65
1683.71
1683.77
1683.83
1683.89
1683.95
1684.01
1684.08
1684.14
1684.2
1684.26
1684.32
1684.38
1684.44
1684.5
1684.57
1684.63
1684.69
1684.75
1684.81
1684.88
1684.94
1685
1685.06
1685.13
1685.19
1685.25
1685.31
1685.38
1685.44
1685.51
1685.57
1685.63
1685.7
1685.76
1685.82
1685.89
1685.95
1686.02
1686.08
1686.15
1686.21
1686.28
1686.34
1686.41
1686.47
1686.54
1686.6
1686.67
1686.74
1686.8
1686.87
1686.93
1687
1687.07
1687.13
1687.2
1687.27
1687.33
1687.4
1687.47
1687.54
1687.6
1687.67
1687.74
1687.81
1687.88
1687.94
1688.01
1688.08
1688.15
1688.22
1688.29
1688.36
1688.42
1688.49
1688.56
1688.63
1688.7
1688.77
1688.84
1688.91
1688.98
1689.05
1689.12
1689.19
1689.26
1689.33
1689.4
1689.48
1689.55
1689.62
1689.69
1689.76
1689.83
1689.9
1689.98
1690.05
1690.12
1690.19
1690.27
1690.34
1690.41
1690.48
1690.56
1690.63
1690.7
1690.78
1690.85
1690.92
1691
1691.07
1691.14
1691.22
1691.29
1691.37
1691.44
1691.52
1691.59
1691.67
1691.74
1691.82
1691.89
1691.97
1692.04
1692.12
1692.19
1692.27
1692.34
1692.42
1692.5
1692.57
1692.65
1692.73
1692.8
1692.88
1692.96
1693.04
1693.11
1693.19
1693.27
1693.35
1693.42
1693.5
1693.58
1693.66
1693.74
1693.81
1693.89
1693.97
1694.05
1694.13
1694.21
1694.29
1694.37
1694.45
1694.53
1694.61
1694.69
1694.77
1694.85
1694.93
1695.01
1695.09
1695.17
1695.25
1695.33
1695.41
1695.49
1695.58
1695.66
1695.74
1695.82
1695.9
1695.99
1696.07
1696.15
1696.23
1696.32
1696.4
1696.48
1696.56
1696.65
1696.73
1696.81
1696.9
1696.98
1697.07
1697.15
1697.23
1697.32
1697.4
1697.49
1697.57
1697.66
1697.74
1697.83
1697.91
1698
1698.08
1698.17
1698.25
1698.34
1698.43
1698.51
1698.6
1698.69
1698.77
1698.86
1698.95
1699.03
1699.12
1699.21
1699.3
1699.38
1699.47
1699.56
1699.65
1699.74
1699.82
1699.91
1700
1700.09
1700.18
1700.27
1700.36
1700.45
1700.53
1700.62
1700.71
1700.8
1700.89
1700.98
1701.07
1701.16
1701.26
1701.35
1701.44
1701.53
1701.62
1701.71
1701.8
1701.89
1701.98
1702.08
1702.17
1702.26
1702.35
1702.45
1702.54
1702.63
1702.72
1702.82
1702.91
1703
1703.1
1703.19
1703.28
1703.38
1703.47
1703.56
1703.66
1703.75
1703.85
1703.94
1704.04
1704.13
1704.23
1704.32
1704.42
1704.51
1704.61
1704.71
1704.8
1704.9
1704.99
1705.09
1705.19
1705.28
1705.38
1705.48
1705.57
1705.67
1705.77
1705.87
1705.96
1706.06
1706.16
1706.26
1706.36
1706.45
1706.55
1706.65
1706.75
1706.85
1706.95
1707.05
1707.15
1707.25
1707.35
1707.45
1707.55
1707.65
1707.75
1707.85
1707.95
1708.05
1708.15
1708.25
1708.35
1708.45
1708.56
1708.66
1708.76
1708.86
1708.96
1709.07
1709.17
1709.27
1709.63
1709.48
1709.58
1709.68
1709.79
1709.89
1709.99
1710.1
1710.2
1710.3
1710.41
1710.51
1710.62
1710.72
1710.83
1710.93
1711.04
1711.14
1711.25
1711.35
1711.46
1711.57
1711.67
1711.78
1711.88
1711.99
1712.1
1712.2
1712.31
1712.42
1712.53
1712.63
1712.74
1712.85
1712.96
1713.06
1713.17
1713.28
1713.39
1713.5
1713.61
1713.72
1713.82
1713.93
1714.04
1714.15
1714.26
1714.37
1714.48
1714.59
1714.7
1714.81
1714.92
1715.04
1715.15
1715.26
1715.37
1715.48
1715.59
1715.7
1715.82
1715.93
1716.04
1716.15
1716.26
1716.38
1716.49
1716.6
1716.72
1716.83
1716.94
1717.06
1717.17
1717.29
1717.4
1717.51
1717.63
1717.74
1717.86
1717.97
1718.09
1718.2
1718.32
1718.43
1718.55
1718.67
1718.78
1718.9
1719.01
1719.13
1719.25
1719.36
1719.48
1719.6
1719.72
1719.83
1719.95
1720.07
1720.19
1720.31
1720.42
1720.54
1720.66
1720.78
1720.9
1721.02
1721.14
1721.26
1721.38
1721.5
1721.62
1721.74
1721.86
1721.98
1722.1
1722.22
1722.34
1722.46
1722.58
1722.7
1722.82
1722.95
1723.07
1723.19
1723.31
1723.44
1723.56
1723.68
1723.8
1723.93
1724.05
1724.17
1724.3
1724.42
1724.55
1724.67
1724.79
1724.92
1725.04
1725.17
1725.29
1725.42
1725.54
1725.67
1725.79
1725.92
1726.05
1726.17
1726.3
1726.43
1726.55
1726.68
1726.81
1726.93
1727.06
1727.19
1727.32
1727.44
1727.57
1727.7
1727.83
1727.96
1728.09
1728.21
1728.34
1728.47
1728.6
1728.73
1728.86
1728.99
1729.12
1729.25
1729.38
1729.51
1729.64
1729.77
1729.91
1730.04
1730.17
1730.3
1730.43
1730.56
1730.7
1730.83
1730.96
1731.09
1731.23
1731.36
1731.49
1731.63
1731.76
1731.9
1732.03
1732.16
1732.3
1732.43
1732.57
1732.7
1732.84
1732.97
1733.11
1733.24
1733.38
1733.51
1733.65
1733.79
1733.92
1734.06
1734.2
1734.33
1734.47
1734.61
1734.75
1734.88
1735.02
1735.16
1735.3
1735.44
1735.58
1735.72
1735.85
1735.99
1736.13
1736.27
1736.41
1736.55
1736.69
1736.83
1736.97
1737.11
1737.26
1737.4
1737.54
1737.68
1737.82
1737.96
1738.1
1738.25
1738.39
1738.53
1738.67
1738.82
1738.96
1739.1
1739.25
1739.39
1739.53
1739.68
1739.82
1739.97
1740.11
1740.26
1740.4
1740.55
1740.69
1740.84
1740.98
1741.13
1741.28
1741.42
1741.57
1741.72
1741.86
1742.01
1742.16
1742.3
1742.45
1742.6
1742.75
1742.9
1743.05
1743.19
1743.34
1743.49
1743.64
1743.79
1743.94
1744.09
1744.24
1744.39
1744.54
1744.69
1744.84
1744.99
1745.14
1745.3
1745.45
1745.6
1745.75
1745.9
1746.06
1746.21
1746.36
1746.51
1746.67
1746.82
1746.97
1747.13
1747.28
1747.44
1747.59
1747.74
1747.9
1748.05
1748.21
1748.37
1748.52
1748.68
1748.83
1748.99
1749.14
1749.3
1749.46
1749.62
1749.77
1749.93
1750.09
1750.25
1750.4
1750.56
1750.72
1750.88
1751.04
1751.2
1751.36
1751.51
1751.67
1751.83
1751.99
1752.15
1752.32
1752.48
1752.64
1752.8
1752.96
1753.12
1753.28
1753.44
1753.61
1753.77
1753.93
1754.09
1754.26
1754.42
1754.58
1754.75
1754.91
1755.07
1755.24
1755.4
1755.57
1755.73
1755.9
1756.06
1756.23
1756.39
1756.56
1756.73
1756.89
1757.06
1757.23
1757.39
1757.56
1757.73
1757.9
1758.06
1758.23
1758.4
1758.57
1758.74
1758.91
1759.07
1759.24
1759.41
1759.58
1759.75
1759.92
1760.09
1760.26
1760.44
1760.61
1760.78
1760.95
1761.12
1761.29
1761.47
1761.64
1761.81
1761.98
1762.16
1762.33
1762.5
1762.68
1762.85
1763.02
1763.2
1763.37
1763.55
1763.72
1763.9
1764.07
1764.25
1764.43
1764.6
1764.78
1764.96
1765.13
1765.31
1765.49
1765.66
1765.84
1766.02
1766.2
1766.38
1766.56
1766.73
1766.91
1767.09
1767.27
1767.45
1767.63
1767.81
1767.99
1768.17
1768.36
1768.54
1768.72
1768.9
1769.08
1769.26
1769.45
1769.63
1769.81
1769.99
1770.18
1770.36
1770.55
1770.73
1770.91
1771.1
1771.28
1771.47
1771.65
1771.84
1772.02
1772.21
1772.4
1772.58
1772.77
1772.96
1773.14
1773.33
1773.52
1773.71
1773.89
1774.08
1774.27
1774.46
1774.65
1774.84
1775.03
1775.22
1775.41
1775.6
1775.79
1775.98
1776.17
1776.36
1776.55
1776.74
1776.94
1777.13
1777.32
1777.51
1777.71
1777.9
1778.09
1778.29
1778.48
1778.67
1778.87
1779.06
1779.26
1779.45
1779.65
1779.85
1780.04
1780.24
1780.43
1780.63
1780.83
1781.02
1781.22
1781.42
1781.62
1781.82
1782.01
1782.21
1782.41
1782.61
1783.82
1783.01
1783.21
1783.41
1783.61
1783.81
1784.01
1784.21
1784.42
1784.62
1784.82
1785.02
1785.22
1785.43
1785.63
1785.83
1786.04
1786.24
1786.44
1786.65
1786.85
1787.06
1787.26
1787.47
1787.67
1787.88
1788.09
1788.29
1788.5
1788.71
1788.91
1789.12
1789.33
1789.54
1789.75
1789.96
1790.16
1790.37
1790.58
1790.79
1791
1791.21
1791.42
1791.63
1791.84
1792.06
1792.27
1792.48
1792.69
1792.9
1793.12
1793.33
1793.54
1793.76
1793.97
1794.18
1794.4
1794.61
1794.83
1795.04
1795.26
1795.47
1795.69
1795.91
1796.12
1796.34
1796.56
1796.77
1796.99
1797.21
1797.43
1797.65
1797.87
1798.08
1798.3
1798.52
1798.74
1798.96
1799.18
1799.4
1799.63
1799.85
1800.07
1800.29
1800.51
1800.74
1800.96
1801.18
1801.4
1801.63
1801.85
1802.08
1802.3
1802.53
1802.75
1802.98
1803.2
1803.43
1803.65
1803.88
1804.11
1804.33
1804.56
1804.79
1805.02
1805.25
1805.47
1805.7
1805.93
1806.16
1806.39
1806.62
1806.85
1807.08
1807.31
1807.55
1807.78
1808.01
1808.24
1808.47
1808.71
1808.94
1809.17
1809.41
1809.64
1809.87
1810.11
1810.34
1810.58
1810.82
1811.05
1811.29
1811.52
1811.76
1812
1812.23
1812.47
1812.71
1812.95
1813.19
1813.43
1813.67
1813.91
1814.15
1814.39
1814.63
1814.87
1815.11
1815.35
1815.59
1815.83
1816.08
1816.32
1816.56
1816.8
1817.05
1817.29
1817.54
1817.78
1818.03
1818.27
1818.52
1818.76
1819.01
1819.26
1819.5
1819.75
1820
1820.24
1820.49
1820.74
1820.99
1821.24
1821.49
1821.74
1821.99
1822.24
1822.49
1822.74
1822.99
1823.24
1823.5
1823.75
1824
1824.26
1824.51
1824.76
1825.02
1825.27
1825.53
1825.78
1826.04
1826.29
1826.55
1826.8
1827.06
1827.32
1827.58
1827.83
1828.09
1828.35
1828.61
1828.87
1829.13
1829.39
1829.65
1829.91
1830.17
1830.43
1830.69
1830.95
1831.22
1831.48
1831.74
1832.01
1832.27
1832.53
1832.8
1833.06
1833.33
1833.59
1833.86
1834.13
1834.39
1834.66
1834.93
1835.19
1835.46
1835.73
1836
1836.27
1836.54
1836.81
1837.08
1837.35
1837.62
1837.89
1838.16
1838.43
1838.71
1838.98
1839.25
1839.52
1839.8
1840.07
1840.35
1840.62
1840.9
1841.17
1841.45
1841.72
1842
1842.28
1842.56
1842.83
1843.11
1843.39
1843.67
1843.95
1844.23
1844.51
1844.79
1845.07
1845.35
1845.63
1845.91
1846.2
1846.48
1846.76
1847.05
1847.33
1847.61
1847.9
1848.18
1848.47
1848.75
1849.04
1849.33
1849.61
1849.9
1850.19
1850.48
1850.77
1851.06
1851.34
1851.63
1851.92
1852.21
1852.51
1852.8
1853.09
1853.38
1853.67
1853.97
1854.26
1854.55
1854.85
1855.14
1855.44
1855.73
1856.03
1856.32
1856.62
1856.92
1857.21
1857.51
1857.81
1858.11
1858.41
1858.71
1859.01
1859.31
1859.61
1859.91
1860.21
1860.51
1860.81
1861.12
1861.42
1861.72
1862.03
1862.33
1862.63
1862.94
1863.25
1863.55
1863.86
1864.16
1864.47
1864.78
1865.09
1865.4
1865.7
1866.01
1866.32
1866.63
1866.94
1867.26
1867.57
1867.88
1868.19
1868.5
1868.82
1869.13
1869.45
1869.76
1870.08
1870.39
1870.71
1871.02
1871.34
1871.66
1871.97
1872.29
1872.61
1872.93
1873.25
1873.57
1873.89
1874.21
1874.53
1874.85
1875.17
1875.5
1875.82
1876.14
1876.47
1876.79
1877.12
1877.44
1877.77
1878.09
1878.42
1878.75
1879.07
1879.4
1879.73
1880.06
1880.39
1880.72
1881.05
1881.38
1881.71
1882.04
1882.38
1882.71
1883.04
1883.37
1883.71
1884.04
1884.38
1884.71
1885.05
1885.39
1885.72
1886.06
1886.4
1886.74
1887.08
1887.41
1887.75
1888.1
1888.44
1888.78
1889.12
1889.46
1889.8
1890.15
1890.49
1890.83
1891.18
1891.52
1891.87
1892.22
1892.56
1892.91
1893.26
1893.61
1893.95
1894.3
1894.65
1895
1895.35
1895.7
1896.06
1896.41
1896.76
1897.11
1897.47
1897.82
1898.18
1898.53
1898.89
1899.24
1899.6
1899.96
1900.32
1900.67
1901.03
1901.39
1901.75
1902.11
1902.47
1902.83
1903.2
1903.56
1903.92
1904.29
1904.65
1905.01
1905.38
1905.74
1906.11
1906.48
1906.84
1907.21
1907.58
1907.95
1908.32
1908.69
1909.06
1909.43
1909.8
1910.17
1910.55
1910.92
1911.29
1911.67
1912.04
1912.42
1912.79
1913.17
1913.55
1913.93
1914.3
1914.68
1915.06
1915.44
1915.82
1916.2
1916.58
1916.97
1917.35
1917.73
1918.12
1918.5
1918.89
1919.27
1919.66
1920.04
1920.43
1920.82
1921.21
1921.6
1921.99
1922.38
1922.77
1923.16
1923.55
1923.94
1927.33
1924.73
1925.12
1925.52
1925.91
1926.31
1926.7
1927.1
1927.5
1927.9
1928.3
1928.7
1929.1
1929.5
1929.9
1930.3
1930.7
1931.11
1931.51
1931.91
1932.32
1932.73
1933.13
1933.54
1933.95
1934.35
1934.76
1935.17
1935.58
1935.99
1936.4
1936.82
1937.23
1937.64
1938.05
1938.47
1938.88
1939.3
1939.72
1940.13
1940.55
1940.97
1941.39
1941.81
1942.23
1942.65
1943.07
1943.49
1943.91
1944.34
1944.76
1945.18
1945.61
1946.04
1946.46
1946.89
1947.32
1947.75
1948.17
1948.6
1949.04
1949.47
1949.9
1950.33
1950.76
1951.2
1951.63
1952.07
1952.5
1952.94
1953.38
1953.82
1954.25
1954.69
1955.13
1955.57
1956.01
1956.46
1956.9
1957.34
1957.79
1958.23
1958.68
1959.12
1959.57
1960.02
1960.47
1960.92
1961.37
1961.82
1962.27
1962.72
1963.17
1963.62
1964.08
1964.53
1964.99
1965.44
1965.9
1966.36
1966.82
1967.28
1967.74
1968.2
1968.66
1969.12
1969.58
1970.05
1970.51
1970.98
1971.44
1971.91
1972.37
1972.84
1973.31
1973.78
1974.25
1974.72
1975.19
1975.67
1976.14
1976.61
1977.09
1977.56
1978.04
1978.52
1978.99
1979.47
1979.95
1980.43
1980.91
1981.39
1981.88
1982.36
1982.84
1983.33
1983.81
1984.3
1984.79
1985.28
1985.76
1986.25
1986.74
1987.24
1987.73
1988.22
1988.71
1989.21
1989.7
1990.2
1990.7
1991.19
1991.69
1992.19
1992.69
1993.19
1993.69
1994.2
1994.7
1995.2
1995.71
1996.22
1996.72
1997.23
1997.74
1998.25
1998.76
1999.27
1999.78
2000.29
2000.81
2001.32
2001.84
2002.35
2002.87
2003.39
2003.9
2004.42
2004.94
2005.47
2005.99
2006.51
2007.03
2007.56
2008.08
2008.61
2009.14
2009.67
2010.2
2010.73
2011.26
2011.79
2012.32
2012.86
2013.39
2013.93
2014.46
2015
2015.54
2016.08
2016.62
2017.16
2017.7
2018.24
2018.79
2019.33
2019.88
2020.42
2020.97
2021.52
2022.07
2022.62
2023.17
2023.72
2024.27
2024.83
2025.38
2025.94
2026.5
2027.05
2027.61
2028.17
2028.73
2029.3
2029.86
2030.42
2030.99
2031.55
2032.12
2032.69
2033.25
2033.82
2034.4
2034.97
2035.54
2036.11
2036.69
2037.26
2037.84
2038.42
2039
2039.58
2040.16
2040.74
2041.32
2041.9
2042.49
2043.07
2043.66
2044.25
2044.84
2045.43
2046.02
2046.61
2047.2
2047.8
2048.39
2048.99
2049.59
2050.19
2050.79
2051.39
2051.99
2052.59
2053.19
2053.8
2054.4
2055.01
2055.62
2056.23
2056.84
2057.45
2058.06
2058.68
2059.29
2059.91
2060.52
2061.14
2061.76
2062.38
2063
2063.63
2064.25
2064.87
2065.5
2066.13
2066.76
2067.38
2068.02
2068.65
2069.28
2069.91
2070.55
2071.18
2071.82
2072.46
2073.1
2073.74
2074.38
2075.03
2075.67
2076.32
2076.96
2077.61
2078.26
2078.91
2079.56
2080.22
2080.87
2081.53
2082.18
2082.84
2083.5
2084.16
2084.82
2085.48
2086.15
2086.81
2087.48
2088.15
2088.82
2089.49
2090.16
2090.83
2091.51
2092.18
2092.86
2093.54
2094.21
2094.89
2095.58
2096.26
2096.94
2097.63
2098.32
2099
2099.69
2100.38
2101.08
2101.77
2102.47
2103.16
2103.86
2104.56
2105.26
2105.96
2106.66
2107.37
2108.07
2108.78
2109.49
2110.2
2110.91
2111.62
2112.33
2113.05
2113.77
2114.48
2115.2
2115.92
2116.65
2117.37
2118.09
2118.82
2119.55
2120.28
2121.01
2121.74
2122.47
2123.21
2123.95
2124.68
2125.42
2126.16
2126.91
2127.65
2128.39
2129.14
2129.89
2130.64
2131.39
2132.14
2132.9
2133.65
2134.41
2135.17
2135.93
2136.69
2137.45
2138.22
2138.98
2139.75
2140.52
2141.29
2142.07
2142.84
2143.61
2144.39
2145.17
2145.95
2146.73
2147.52
2148.3
2149.09
2149.88
2150.67
2151.46
2152.25
2153.05
2153.84
2154.64
2155.44
2156.24
2157.04
2157.85
2158.65
2159.46
2160.27
2161.08
2161.9
2162.71
2163.53
2164.34
2165.16
2165.99
2166.81
2167.63
2168.46
2169.29
2170.12
2170.95
2171.78
2172.62
2173.45
2174.29
2175.13
2175.98
2176.82
2177.67
2178.51
2179.36
2180.21
2181.07
2181.92
2182.78
2183.64
2184.5
2185.36
2186.22
2187.09
2187.96
2188.83
2189.7
2190.57
2191.44
2192.32
2193.2
2194.08
2194.96
2195.85
2196.73
2197.62
2198.51
2199.41
2200.3
2201.2
2202.09
2202.99
2203.9
2204.8
2205.7
2206.61
2207.52
2208.43
2209.35
2210.26
2211.18
2212.1
2213.02
2213.95
2214.87
2215.8
2216.73
2217.66
2218.6
2219.53
2220.47
2221.41
2222.36
2223.3
2224.25
2225.2
2226.15
2227.1
2228.06
2229.01
2229.97
2230.93
2231.9
2232.86
2227.25
2234.8
2235.78
2236.75
2237.73
2238.71
2239.69
2240.67
2241.66
2242.65
2243.64
2244.63
2245.62
2246.62
2247.62
2248.62
2249.63
2250.63
2251.64
2252.65
2253.67
2254.68
2255.7
2256.72
2257.75
2258.77
2259.8
2260.83
2261.86
2262.9
2263.93
2264.97
2266.02
2267.06
2268.11
2269.16
2270.21
2271.27
2272.32
2273.38
2274.45
2275.51
2276.58
2277.65
2278.72
2279.79
2280.87
2281.95
2283.03
2284.12
2285.21
2286.3
2287.39
2288.49
2289.59
2290.69
2291.79
2292.9
2294.01
2295.12
2296.23
2297.35
2298.47
2299.59
2300.72
2301.85
2302.98
2304.11
2305.25
2306.39
2307.53
2308.67
2309.82
2310.97
2312.13
2313.28
2314.44
2315.6
2316.77
2317.94
2319.11
2320.28
2321.46
2322.64
2323.82
2325.01
2326.19
2327.39
2328.58
2329.78
2330.98
2332.18
2333.39
2334.6
2335.81
2337.03
2338.25
2339.47
2340.7
2341.92
2343.16
2344.39
2345.63
2346.87
2348.11
2349.36
2350.61
2351.87
2353.12
2354.38
2355.65
2356.92
2358.19
2359.46
2360.74
2362.02
2363.3
2364.59
2365.88
2367.17
2368.47
2369.77
2371.08
2372.38
2373.7
2375.01
2376.33
2377.65
2378.98
2380.31
2381.64
2382.97
2384.31
2385.66
2387
2388.35
2389.71
2391.07
2392.43
2393.79
2395.16
2396.53
2397.91
2399.29
2400.67
2402.06
2403.45
2404.85
2406.25
2407.65
2409.06
2410.47
2411.88
2413.3
2414.73
2416.15
2417.58
2419.02
2420.46
2421.9
2423.34
2424.8
2426.25
2427.71
2429.17
2430.64
2432.11
2433.58
2435.06
2436.55
2438.04
2439.53
2441.02
2442.53
2444.03
2445.54
2447.05
2448.57
2450.09
2451.62
2453.15
2454.69
2456.23
2457.77
2459.32
2460.88
2462.43
2464
2465.56
2467.14
2468.71
2470.29
2471.88
2473.47
2475.06
2476.66
2478.27
2479.88
2481.49
2483.11
2484.73
2486.36
2488
2489.64
2491.28
2492.93
2494.58
2496.24
2497.9
2499.57
2501.24
2502.92
2504.61
2506.29
2507.99
2509.69
2511.39
2513.1
2514.82
2516.54
2518.26
2519.99
2521.73
2523.47
2525.22
2526.97
2528.73
2530.49
2532.26
2534.03
2535.81
2537.6
2539.39
2541.19
2542.99
2544.8
2546.61
2548.43
2550.26
2552.09
2553.92
2555.77
2557.62
2559.47
2561.33
2563.2
2565.07
2566.95
2568.84
2570.73
2572.62
2574.53
2576.44
2578.35
2580.27
2582.2
2584.14
2586.08
2588.03
2589.98
2591.94
2593.91
2595.88
2597.86
2599.85
2601.84
2603.84
2605.85
2607.86
2609.88
2611.91
2613.94
2615.98
2618.03
2620.09
2622.15
2624.22
2626.29
2628.38
2630.47
2632.56
2634.67
2636.78
2638.9
2641.03
2643.16
2645.3
2647.45
2649.61
2651.77
2653.94
2656.12
2658.31
2660.5
2662.7
2664.91
2667.13
2669.36
2671.59
2673.83
2676.08
2678.34
2680.6
2682.88
2685.16
2687.45
2689.75
2692.06
2694.37
2696.69
2699.03
2701.37
2703.72
2706.08
2708.44
2710.82
2713.2
2715.59
2718
2720.41
2722.83
2725.25
2727.69
2730.14
2732.6
2735.06
2737.54
2740.02
2742.51
2745.02
2747.53
2750.05
2752.58
2755.12
2757.67
2760.24
2762.81
2765.39
2767.98
2770.58
2773.19
2775.81
2778.44
2781.08
2783.73
2786.4
2789.07
2791.75
2794.45
2797.15
2799.87
2802.59
2805.33
2808.08
2810.84
2813.61
2816.39
2819.18
2821.98
2824.8
2827.62
2830.46
2833.31
2836.17
2839.05
2841.93
2844.83
2847.74
2850.66
2853.59
2856.53
2859.49
2862.46
2865.44
2868.44
2871.44
2874.46
2877.5
2880.54
2883.6
2886.67
2889.76
2892.85
2895.96
2899.09
2902.23
2905.38
2908.54
2911.72
2914.91
2918.12
2921.34
2924.57
2927.82
2931.08
2934.36
2937.65
2940.96
2944.28
2947.62
2950.97
2954.33
2957.71
2961.11
2964.52
2967.95
2971.39
2974.85
2978.32
2981.81
2985.32
2988.84
2992.38
2995.93
2999.5
3003.09
3006.69
3010.32
3013.95
3017.61
3021.28
3024.97
3028.68
3032.4
3036.14
3039.9
3043.68
3047.48
3051.29
3055.12
3058.98
3062.85
3066.73
3070.64
3074.57
3078.51
3082.48
3086.46
3090.47
3094.49
3098.54
3102.6
3106.68
3110.79
3114.92
3119.06
3123.23
3127.42
3131.63
3135.86
3140.11
3144.39
3148.68
3153
3157.34
3161.7
3166.09
3170.5
3174.93
3179.39
3183.86
3188.37
3192.89
3197.44
3202.02
3206.62
3211.24
3215.89
3220.56
3225.26
3229.98
3234.73
3239.5
3244.31
3249.13
3253.99
3258.87
3263.77
3268.71
3273.67
3278.66
3283.68
3288.73
3293.8
3298.9
3304.04
3309.2
3314.39
3319.61
3324.86
3330.14
3335.45
3340.79
3346.17
3351.57
3357.01
3362.47
3367.97
3373.51
3379.07
3362.41
3390.3
3395.97
3401.67
3407.4
3413.17
3418.97
3424.81
3430.69
3436.6
3442.55
3448.53
3454.55
3460.61
3466.7
3472.84
3479.01
3485.22
3491.47
3497.76
3504.09
3510.47
3516.88
3523.33
3529.83
3536.36
3542.94
3549.56
3556.23
3562.94
3569.69
3576.49
3583.34
3590.22
3597.16
3604.14
3611.17
3618.25
3625.37
3632.55
3639.77
3647.04
3654.36
3661.74
3669.16
3676.64
3684.16
3691.75
3699.38
3707.07
3714.81
3684.6
3730.47
3738.38
3746.34
3754.37
3762.45
3770.6
3778.8
3787.07
3795.39
3803.78
3812.23
3820.74
3829.31
3837.96
3846.66
3855.43
3864.27
3873.18
3882.16
3891.2
3900.32
3909.51
3918.77
3928.1
3937.5
3946.98
3956.54
3966.17
3975.88
3985.67
3995.53
4005.48
4015.51
4025.62
4035.82
4046.1
4056.46
4066.91
4077.45
4088.08
4098.8
4109.6
4120.51
4131.5
4142.59
4153.78
4165.06
4176.44
4144.01
4199.51
4211.19
4222.98
4234.88
4246.88
4258.99
4271.21
4283.54
4295.99
4308.55
4321.22
4334.02
4346.93
4359.96
4373.12
4386.4
4399.81
4413.35
4427.02
4440.81
4454.75
4468.82
4483.02
4497.37
4511.86
4526.49
4541.28
4556.2
4571.28
4586.52
4601.91
4617.45
4633.16
4649.03
4665.07
4681.27
4697.65
4714.2
4730.92
4747.83
4764.92
4782.19
4799.65
4817.3
4835.14
4853.18
4871.43
4889.87
4908.53
4927.39
4864.55
4965.77
4985.29
5005.03
5025.01
5045.21
5065.66
5086.35
5107.28
5128.46
5149.9
5171.59
5193.55
5215.78
5238.28
5261.06
5284.12
5307.47
5331.11
5355.06
5379.3
5403.86
5428.73
5453.92
5479.44
5505.3
5531.49
5558.03
5584.93
5612.18
5639.8
5667.79
5696.17
5724.93
5754.09
5783.65
5813.62
5844.01
5874.83
5906.08
5937.78
5969.93
6002.55
6035.63
6069.19
6103.25
6137.8
6172.86
6208.45
6127.18
6281.21
6318.42
6356.19
6394.52
6433.45
6472.97
6513.1
6553.85
6595.23
6637.26
6679.94
6723.29
6767.33
6812.06
6857.5
6903.66
6950.56
6998.2
7046.61
7095.8
7145.77
7196.55
7248.15
7300.58
7353.85
7407.98
7462.98
7518.87
7575.65
7633.34
7691.96
7751.5
7811.99
7873.42
7935.82
7999.19
8063.54
8128.86
8195.18
8262.48
8330.77
8400.05
8470.32
8541.57
8613.79
8686.98
8761.11
8836.18
8912.16
8775.42
9066.73
9145.27
9224.59
9304.64
9385.38
9466.74
9548.67
9631.08
9713.9
9797.04
9880.41
9963.89
10047.4
10130.7
10213.8
10296.5
10378.6
10460
10540.5
10619.8
10697.9
10774.4
10849.2
10922.1
10992.8
11061
11126.5
11189.1
11248.6
11304.6
11356.9
11405.3
11449.5
11489.3
11524.6
11555
11580.5
11600.8
11615.8
11625.5
11629.6
11628.3
11621.3
11608.7
11590.6
11567
11538
11503.6
11464.1
11529.5
11370.1
11316
11257.6
11194.9
11128.3
11058
10984.3
10907.4
10827.6
10745.2
10660.4
10573.5
10484.7
10394.4
10302.6
10209.7
10115.9
10021.3
9926.25
9830.82
9735.2
9639.56
9544.05
9448.79
9353.91
9259.52
9165.73
9072.63
8980.29
8888.81
8798.23
8708.62
8620.03
8532.51
8446.08
8360.79
8276.65
8193.7
8111.93
8031.38
7952.05
7873.94
7797.05
7721.39
7646.95
7573.73
7501.72
7430.91
7361.29
7447.89
7225.58
7159.47
7094.49
7030.63
6967.87
6906.21
6845.62
6786.09
6727.59
6670.11
6613.63
6558.13
6503.6
6450.02
6397.36
6345.61
6294.76
6244.78
6195.65
6147.37
6099.91
6053.26
6007.39
5962.3
5917.96
5874.37
5831.5
5789.34
5747.87
5707.09
5666.97
5627.51
5588.68
5550.48
5512.89
5475.9
5439.49
5403.66
5368.39
5333.67
5299.48
5265.83
5232.69
5200.05
5167.91
5136.26
5105.07
5074.36
5044.1
5079.6
4984.9
4955.95
4927.42
4899.3
4871.58
4844.26
4817.32
4790.76
4764.57
4738.75
4713.28
4688.17
4663.39
4638.96
4614.85
4591.07
4567.6
4544.44
4521.59
4499.04
4476.79
4454.82
4433.14
4411.73
4390.59
4369.73
4349.12
4328.78
4308.69
4288.84
4269.24
4249.89
4230.76
4211.87
4193.21
4174.76
4156.54
4138.54
4120.74
4103.16
4085.78
4068.6
4051.61
4034.83
4018.23
4001.82
3985.6
3969.56
3953.7
3938.01
3971.19
3907.15
3891.98
3876.97
3862.12
3847.43
3832.89
3818.52
3804.29
3790.21
3776.28
3762.5
3748.86
3735.36
3722
3708.77
3695.68
3682.72
3669.89
3657.19
3644.62
3632.17
3619.84
3607.63
3595.55
3583.58
3571.72
3559.99
3548.36
3536.84
3525.43
3514.13
3502.94
3491.85
3480.86
3469.98
3459.2
3448.51
3437.92
3427.43
3417.04
3406.73
3396.52
3386.41
3376.38
3366.44
3356.58
3346.82
3337.13
3342.98
3318.02
3308.59
3299.24
3289.97
3280.77
3271.66
3262.62
3253.66
3244.77
3235.95
3227.21
3218.54
3209.95
3201.42
3192.96
3184.57
3176.25
3168
3159.81
3151.68
3143.62
3135.63
3127.7
3119.83
3112.02
3104.27
3096.58
3088.95
3081.38
3073.87
3066.42
3059.02
3051.68
3044.39
3037.16
3029.98
3022.85
3015.78
3008.76
3001.8
2994.88
2988.01
2981.2
2974.43
2967.71
2961.04
2954.42
2947.84
2941.32
2934.83
2928.4
2922.01
2915.66
2909.36
2903.1
2896.89
2890.72
2884.59
2878.5
2872.46
2866.45
2860.49
2854.57
2848.68
2842.84
2837.03
2831.27
2825.54
2819.85
2814.2
2808.58
2803
2797.46
2791.95
2786.48
2781.05
2775.65
2770.28
2764.95
2759.65
2754.39
2749.16
2743.96
2738.8
2733.67
2728.57
2723.5
2718.46
2713.45
2708.48
2703.53
2698.62
2693.74
2688.88
2684.06
2679.26
2674.49
2669.75
2665.04
2660.36
2655.71
2651.08
2646.48
2641.91
2637.36
2632.84
2628.35
2623.88
2619.44
2615.03
2610.64
2606.28
2601.94
2597.62
2593.33
2589.07
2584.83
2580.61
2576.41
2572.24
2568.1
2563.97
2559.87
2555.79
2551.74
2547.7
2543.69
2539.7
2535.74
2531.79
2527.87
2523.96
2520.08
2516.22
2512.38
2508.56
2504.76
2500.98
2497.22
2493.48
2489.76
2486.06
2482.38
2478.72
2475.08
2471.45
2467.85
2464.26
2460.69
2457.14
2453.61
2450.1
2446.61
2443.13
2439.67
2436.23
2432.8
2429.39
2426
2422.63
2419.27
2415.93
2412.61
2409.3
2406.01
2402.74
2399.48
2396.24
2393.01
2389.8
2386.6
2383.42
2380.26
2377.11
2373.97
2370.86
2367.75
2364.66
2361.59
2358.53
2355.48
2352.45
2349.43
2346.43
2343.44
2340.47
2337.51
2334.56
2331.63
2328.71
2325.8
2322.91
2320.03
2317.16
2314.31
2311.47
2308.64
2305.82
2303.02
2300.23
2297.46
2294.69
2291.94
2289.2
2286.47
2283.76
2281.06
2278.36
2275.69
2273.02
2270.36
2267.72
2265.09
2262.46
2259.85
2257.26
2254.67
2252.09
2249.53
2246.98
2244.43
2241.9
2239.38
2236.87
2234.37
2231.88
2229.4
2226.93
2224.48
2222.03
2219.59
2217.17
2214.75
2212.34
2209.95
2207.56
2205.18
2202.82
2200.46
2198.11
2195.77
2193.45
2191.13
2188.82
2186.52
2184.23
2181.95
2179.67
2177.41
2175.16
2172.91
2170.68
2168.45
2166.23
2164.02
2161.82
2159.63
2157.45
2155.27
2153.11
2150.95
2148.8
2146.66
2144.53
2142.4
2140.29
2138.18
2136.08
2133.99
2131.91
2129.83
2127.77
2125.71
2123.66
2121.61
2119.58
2117.55
2115.53
2113.52
2111.51
2109.51
2107.52
2105.54
2103.57
2101.6
2099.64
2097.68
2095.74
2093.8
2091.87
2089.94
2088.03
2086.12
2084.21
2082.32
2080.43
2078.55
2076.67
2074.8
2072.94
2071.08
2069.24
2067.39
2065.56
2063.73
2061.91
2060.09
2058.28
2056.48
2054.69
2052.9
2051.11
2049.33
2047.56
2045.8
2044.04
2042.29
2040.54
2038.8
2037.07
2035.34
2033.62
2031.9
2030.19
2028.49
2026.79
2025.1
2023.41
2021.73
2020.06
2018.39
2016.72
2015.06
2013.41
2011.77
2010.12
2008.49
2006.86
2005.23
2003.61
2002
2000.39
1998.79
1997.19
1995.6
1994.01
1992.43
1990.85
1989.28
1987.72
1986.16
1984.6
1983.05
1981.5
1979.96
1978.43
1976.9
1975.37
1973.85
1972.34
1970.83
1969.32
1967.82
1966.32
1964.83
1963.34
1961.86
1960.39
1958.91
1957.45
1955.98
1954.52
1953.07
1951.62
1950.18
1948.74
1947.3
1945.87
1944.44
1943.02
1941.6
1940.19
1938.78
1937.38
1935.98
1934.58
1933.19
1931.8
1930.42
1929.04
1927.67
1926.3
1924.93
1923.57
1922.21
1920.86
1919.51
1918.17
1916.83
1915.49
1914.16
1912.83
1911.5
1910.18
1908.86
1907.55
1906.24
1904.94
1903.63
1902.34
1901.04
1899.75
1898.47
1897.19
1895.91
1894.63
1893.36
1892.1
1890.83
1889.57
1888.32
1887.07
1885.82
1884.57
1883.33
1882.09
1880.86
1879.63
1878.4
1877.18
1875.96
1874.74
1873.53
1872.32
1871.11
1869.91
1868.71
1867.52
1866.32
1865.13
1863.95
1862.77
1861.59
1860.41
1859.24
1858.07
1856.91
1855.74
1854.58
1853.43
1852.28
1851.13
1849.98
1848.84
1847.7
1846.56
1845.43
1844.3
1843.17
1842.05
1840.93
1839.81
1838.69
1837.58
1836.47
1835.37
1834.26
1833.16
1832.07
1830.97
1829.88
1828.79
1827.71
1826.63
1825.55
1824.47
1823.4
1822.33
1821.26
1820.2
1819.14
1818.08
1817.02
1815.97
1814.92
1813.87
1812.82
1811.78
1810.74
1809.71
1808.67
1807.64
1806.61
1805.59
1804.56
1803.54
1802.52
1801.51
1800.5
1798.68
1798.48
1797.48
1796.47
1795.47
1794.48
1793.48
1792.49
1791.5
1790.52
1789.53
1788.55
1787.57
1786.59
1785.62
1784.65
1783.68
1782.71
1781.75
1780.79
1779.83
1778.87
1777.92
1776.96
1776.01
1775.07
1774.12
1773.18
1772.24
1771.3
1770.37
1769.43
1768.5
1767.57
1766.65
1765.72
1764.8
1763.88
1762.97
1762.05
1761.14
1760.23
1759.32
1758.41
1757.51
1756.61
1755.71
1754.81
1753.92
1753.02
1752.13
1751.25
1750.36
1749.48
1748.59
1747.71
1746.84
1745.96
1745.09
1744.22
1743.35
1742.48
1741.61
1740.75
1739.89
1739.03
1738.17
1737.32
1736.47
1735.62
1734.77
1733.92
1733.08
1732.23
1731.39
1730.55
1729.72
1728.88
1728.05
1727.22
1726.39
1725.56
1724.74
1723.91
1723.09
1722.27
1721.46
1720.64
1719.83
1719.01
1718.2
1717.4
1716.59
1715.79
1714.98
1714.18
1713.38
1712.59
1711.79
1711
1710.21
1709.42
1708.63
1707.84
1707.06
1706.28
1705.49
1704.72
1703.94
1703.16
1702.39
1701.62
1700.85
1700.08
1699.31
1698.55
1697.78
1697.02
1696.26
1695.5
1694.75
1693.99
1693.24
1692.49
1691.74
1690.99
1690.24
1689.5
1688.75
1688.01
1687.27
1686.53
1685.79
1685.06
1684.33
1683.59
1682.86
1682.13
1681.41
1680.68
1679.96
1679.24
1678.51
1677.79
1677.08
1676.36
1675.65
1674.93
1674.22
1673.51
1672.8
1672.1
1671.39
1670.69
1669.98
1669.28
1668.58
1667.88
1667.19
1666.49
1665.8
1665.11
1664.42
1663.73
1663.04
1662.35
1661.67
1660.99
1660.3
1659.62
1658.94
1658.27
1657.59
1656.91
1656.24
1655.57
1654.9
1654.23
1653.56
1652.9
1652.23
1651.57
1650.9
1650.24
1649.58
1648.93
1648.27
1647.61
1646.96
1646.31
1645.65
1645
1644.36
1643.71
1643.06
1642.42
1641.77
1641.13
1640.49
1639.85