/*--------------------------------*- C++ -*----------------------------------*\
| =========                 |                                                 |
| \\      /  F ield         | OpenFOAM: The Open Source CFD Toolbox           |
|  \\    /   O peration     | Version:  2.3.0                                 |
|   \\  /    A nd           | Web:      www.OpenFOAM.org                      |
|    \\/     M anipulation  |                                                 |
\*---------------------------------------------------------------------------*/
FoamFile
{
    version     2.0;
    format      ascii;
    class       volScalarField;
    location    "0";
    object      thermo:Cv;
}
// * * * * * * * * * * * * * * * * * * * * * * * * * * * * * * * * * * * * * //

dimensions      [0 2 -2 -1 0 0 0];

internalField   nonuniform List<scalar> 
10000
(
1116.17
1116.07
1115.97
1115.87
1115.77
1115.67
1115.57
1115.47
1115.37
1115.27
1115.17
1115.07
1114.97
1114.87
1114.77
1114.67
1114.57
1114.47
1114.37
1114.27
1114.17
1114.07
1113.97
1113.88
1113.78
1113.68
1113.58
1113.48
1113.38
1113.28
1113.18
1113.08
1112.98
1112.89
1112.79
1112.69
1112.59
1112.49
1112.39
1112.29
1112.2
1112.1
1112
1111.9
1111.8
1111.7
1111.61
1111.51
1111.41
1111.31
1111.21
1111.11
1111.02
1110.92
1110.82
1110.72
1110.62
1110.53
1110.43
1110.33
1110.23
1110.14
1110.04
1109.94
1109.84
1109.75
1109.65
1109.55
1109.45
1109.36
1109.26
1109.16
1109.06
1108.97
1108.87
1108.77
1108.67
1108.58
1108.48
1108.38
1108.29
1108.19
1108.09
1108
1107.9
1107.8
1107.71
1107.61
1107.51
1107.42
1107.32
1107.22
1107.13
1107.03
1106.93
1106.84
1106.74
1106.64
1106.55
1106.45
1106.35
1106.26
1106.16
1106.07
1105.97
1105.87
1105.78
1105.68
1105.59
1105.49
1105.39
1105.3
1105.2
1105.11
1105.01
1104.92
1104.82
1104.72
1104.63
1104.53
1104.44
1104.34
1104.25
1104.15
1104.06
1103.96
1103.87
1103.77
1103.67
1103.58
1103.48
1103.39
1103.29
1103.2
1103.1
1103.01
1102.91
1102.82
1102.72
1102.63
1102.53
1102.44
1102.35
1102.25
1102.16
1102.06
1101.97
1101.87
1101.78
1101.68
1101.59
1101.49
1101.4
1101.31
1101.21
1101.12
1101.02
1100.93
1100.83
1100.74
1100.65
1100.55
1100.46
1100.36
1100.27
1100.18
1100.08
1099.99
1099.89
1099.8
1099.71
1099.61
1099.52
1099.43
1099.33
1099.24
1099.14
1099.05
1098.96
1098.86
1098.77
1098.68
1098.58
1098.49
1098.4
1098.3
1098.21
1098.12
1098.02
1097.93
1097.84
1097.74
1097.65
1097.56
1097.47
1097.37
1097.28
1097.19
1097.09
1097
1096.91
1096.82
1096.72
1096.63
1096.54
1096.44
1096.35
1096.26
1096.17
1096.07
1095.98
1095.89
1095.8
1095.7
1095.61
1095.52
1095.43
1095.34
1095.24
1095.15
1095.06
1094.97
1094.87
1094.78
1094.69
1094.6
1094.51
1094.41
1094.32
1094.23
1094.14
1094.05
1093.96
1093.86
1093.77
1093.68
1093.59
1093.5
1093.41
1093.31
1093.22
1093.13
1093.04
1092.95
1092.86
1092.77
1092.67
1092.58
1092.49
1092.4
1092.31
1092.22
1092.13
1092.04
1091.94
1091.85
1091.76
1091.67
1091.58
1091.49
1091.4
1091.31
1091.22
1091.13
1091.03
1090.94
1090.85
1090.76
1090.67
1090.58
1090.49
1090.4
1090.31
1090.22
1090.13
1090.04
1089.95
1089.86
1089.77
1089.68
1089.59
1089.5
1089.41
1089.32
1089.23
1089.14
1089.05
1088.95
1088.86
1088.77
1088.68
1088.59
1088.5
1088.41
1088.32
1088.24
1088.15
1088.06
1087.97
1087.88
1087.79
1087.7
1087.61
1087.52
1087.43
1087.34
1087.25
1087.16
1087.07
1086.98
1086.89
1086.8
1086.71
1086.62
1086.53
1086.44
1086.35
1086.27
1086.18
1086.09
1086
1085.91
1085.82
1085.73
1085.64
1085.55
1085.46
1085.37
1085.29
1085.2
1085.11
1085.02
1084.93
1084.84
1084.75
1084.66
1084.57
1084.49
1084.4
1084.31
1084.22
1084.13
1084.04
1083.95
1083.87
1083.78
1083.69
1083.6
1083.51
1083.42
1083.34
1083.25
1083.16
1083.07
1082.98
1082.89
1082.81
1082.72
1082.63
1082.54
1082.45
1082.37
1082.28
1082.19
1082.1
1082.01
1081.93
1081.84
1081.75
1081.66
1081.57
1081.49
1081.4
1081.31
1081.22
1081.14
1081.05
1080.96
1080.87
1080.79
1080.7
1080.61
1080.52
1080.44
1080.35
1080.26
1080.17
1080.09
1080
1079.91
1079.82
1079.74
1079.65
1079.56
1079.48
1079.39
1079.3
1079.21
1079.13
1079.04
1078.95
1078.87
1078.78
1078.69
1078.61
1078.52
1078.43
1078.35
1078.26
1078.17
1078.08
1078
1077.91
1077.82
1077.74
1077.65
1077.56
1077.48
1077.39
1077.31
1077.22
1077.13
1077.05
1076.96
1076.87
1076.79
1076.7
1076.61
1076.53
1076.44
1076.36
1076.27
1076.18
1076.1
1076.01
1075.92
1075.84
1075.75
1075.67
1075.58
1075.49
1075.41
1075.32
1075.24
1075.15
1075.06
1074.98
1074.89
1074.81
1074.72
1074.64
1074.55
1074.46
1074.38
1074.29
1074.21
1074.12
1074.04
1073.95
1073.86
1073.78
1073.69
1073.61
1073.52
1073.44
1073.35
1073.27
1073.18
1073.1
1073.01
1072.93
1072.84
1072.75
1072.67
1072.58
1072.5
1072.41
1072.33
1072.24
1072.16
1072.07
1071.99
1071.9
1071.82
1071.73
1071.65
1071.56
1071.48
1071.39
1071.31
1071.22
1071.14
1071.05
1070.97
1070.89
1070.8
1070.72
1070.63
1070.55
1070.25
1070.38
1070.29
1070.21
1070.12
1070.04
1069.95
1069.87
1069.79
1069.7
1069.62
1069.53
1069.45
1069.36
1069.28
1069.2
1069.11
1069.03
1068.94
1068.86
1068.77
1068.69
1068.61
1068.52
1068.44
1068.35
1068.27
1068.19
1068.1
1068.02
1067.93
1067.85
1067.77
1067.68
1067.6
1067.51
1067.43
1067.35
1067.26
1067.18
1067.1
1067.01
1066.93
1066.84
1066.76
1066.68
1066.59
1066.51
1066.43
1066.34
1066.26
1066.18
1066.09
1066.01
1065.93
1065.84
1065.76
1065.68
1065.59
1065.51
1065.43
1065.34
1065.26
1065.18
1065.09
1065.01
1064.93
1064.84
1064.76
1064.68
1064.59
1064.51
1064.43
1064.34
1064.26
1064.18
1064.1
1064.01
1063.93
1063.85
1063.76
1063.68
1063.6
1063.51
1063.43
1063.35
1063.27
1063.18
1063.1
1063.02
1062.94
1062.85
1062.77
1062.69
1062.6
1062.52
1062.44
1062.36
1062.27
1062.19
1062.11
1062.03
1061.94
1061.86
1061.78
1061.7
1061.62
1061.53
1061.45
1061.37
1061.29
1061.2
1061.12
1061.04
1060.96
1060.87
1060.79
1060.71
1060.63
1060.55
1060.46
1060.38
1060.3
1060.22
1060.14
1060.05
1059.97
1059.89
1059.81
1059.73
1059.64
1059.56
1059.48
1059.4
1059.32
1059.23
1059.15
1059.07
1058.99
1058.91
1058.83
1058.74
1058.66
1058.58
1058.5
1058.42
1058.34
1058.25
1058.17
1058.09
1058.01
1057.93
1057.85
1057.76
1057.68
1057.6
1057.52
1057.44
1057.36
1057.28
1057.19
1057.11
1057.03
1056.95
1056.87
1056.79
1056.71
1056.63
1056.54
1056.46
1056.38
1056.3
1056.22
1056.14
1056.06
1055.98
1055.9
1055.81
1055.73
1055.65
1055.57
1055.49
1055.41
1055.33
1055.25
1055.17
1055.09
1055
1054.92
1054.84
1054.76
1054.68
1054.6
1054.52
1054.44
1054.36
1054.28
1054.2
1054.12
1054.04
1053.95
1053.87
1053.79
1053.71
1053.63
1053.55
1053.47
1053.39
1053.31
1053.23
1053.15
1053.07
1052.99
1052.91
1052.83
1052.75
1052.67
1052.59
1052.51
1052.43
1052.35
1052.26
1052.18
1052.1
1052.02
1051.94
1051.86
1051.78
1051.7
1051.62
1051.54
1051.46
1051.38
1051.3
1051.22
1051.14
1051.06
1050.98
1050.9
1050.82
1050.74
1050.66
1050.58
1050.5
1050.42
1050.34
1050.26
1050.18
1050.1
1050.02
1049.94
1049.86
1049.78
1049.7
1049.62
1049.54
1049.46
1049.38
1049.3
1049.23
1049.15
1049.07
1048.99
1048.91
1048.83
1048.75
1048.67
1048.59
1048.51
1048.43
1048.35
1048.27
1048.19
1048.11
1048.03
1047.95
1047.87
1047.79
1047.71
1047.63
1047.56
1047.48
1047.4
1047.32
1047.24
1047.16
1047.08
1047
1046.92
1046.84
1046.76
1046.68
1046.6
1046.52
1046.45
1046.37
1046.29
1046.21
1046.13
1046.05
1045.97
1045.89
1045.81
1045.73
1045.65
1045.58
1045.5
1045.42
1045.34
1045.26
1045.18
1045.1
1045.02
1044.94
1044.86
1044.79
1044.71
1044.63
1044.55
1044.47
1044.39
1044.31
1044.23
1044.16
1044.08
1044
1043.92
1043.84
1043.76
1043.68
1043.6
1043.53
1043.45
1043.37
1043.29
1043.21
1043.13
1043.05
1042.98
1042.9
1042.82
1042.74
1042.66
1042.58
1042.5
1042.43
1042.35
1042.27
1042.19
1042.11
1042.03
1041.96
1041.88
1041.8
1041.72
1041.64
1041.56
1041.49
1041.41
1041.33
1041.25
1041.17
1041.09
1041.02
1040.94
1040.86
1040.78
1040.7
1040.63
1040.55
1040.47
1040.39
1040.31
1040.23
1040.16
1040.08
1040
1039.92
1039.84
1039.77
1039.69
1039.61
1039.53
1039.45
1039.38
1039.3
1039.22
1039.14
1039.06
1038.99
1038.91
1038.83
1038.75
1038.68
1038.6
1038.52
1038.44
1038.36
1038.29
1038.21
1038.13
1038.05
1037.98
1037.9
1037.82
1037.74
1037.66
1037.59
1037.51
1037.43
1037.35
1037.28
1037.2
1037.12
1037.04
1036.97
1036.89
1036.81
1036.73
1036.66
1036.58
1036.5
1036.42
1036.35
1036.27
1036.19
1036.11
1036.04
1035.96
1035.88
1035.8
1035.73
1035.65
1035.57
1035.49
1035.42
1035.34
1035.26
1035.18
1035.11
1035.03
1034.95
1034.87
1034.8
1034.72
1034.64
1034.57
1034.49
1034.41
1034.33
1034.26
1034.18
1034.1
1034.03
1033.95
1033.87
1033.79
1033.72
1033.64
1033.56
1033.49
1033.41
1033.33
1033.25
1033.18
1033.1
1033.02
1032.95
1032.87
1032.79
1032.72
1032.64
1032.56
1032.48
1032.41
1032.33
1032.25
1032.18
1032.1
1032.02
1031.95
1031.87
1031.79
1031.72
1031.64
1031.56
1031.48
1031.41
1031.33
1031.25
1031.18
1031.1
1031.02
1030.95
1030.87
1030.79
1030.72
1030.64
1030.56
1030.49
1030.02
1030.33
1030.26
1030.18
1030.1
1030.03
1029.95
1029.87
1029.8
1029.72
1029.64
1029.57
1029.49
1029.41
1029.34
1029.26
1029.18
1029.11
1029.03
1028.95
1028.88
1028.8
1028.72
1028.65
1028.57
1028.5
1028.42
1028.34
1028.27
1028.19
1028.11
1028.04
1027.96
1027.88
1027.81
1027.73
1027.65
1027.58
1027.5
1027.43
1027.35
1027.27
1027.2
1027.12
1027.04
1026.97
1026.89
1026.81
1026.74
1026.66
1026.59
1026.51
1026.43
1026.36
1026.28
1026.2
1026.13
1026.05
1025.98
1025.9
1025.82
1025.75
1025.67
1025.6
1025.52
1025.44
1025.37
1025.29
1025.21
1025.14
1025.06
1024.99
1024.91
1024.83
1024.76
1024.68
1024.61
1024.53
1024.45
1024.38
1024.3
1024.23
1024.15
1024.07
1024
1023.92
1023.85
1023.77
1023.69
1023.62
1023.54
1023.47
1023.39
1023.31
1023.24
1023.16
1023.09
1023.01
1022.93
1022.86
1022.78
1022.71
1022.63
1022.55
1022.48
1022.4
1022.33
1022.25
1022.18
1022.1
1022.02
1021.95
1021.87
1021.8
1021.72
1021.65
1021.57
1021.49
1021.42
1021.34
1021.27
1021.19
1021.11
1021.04
1020.96
1020.89
1020.81
1020.74
1020.66
1020.58
1020.51
1020.43
1020.36
1020.28
1020.21
1020.13
1020.05
1019.98
1019.9
1019.83
1019.75
1019.68
1019.6
1019.53
1019.45
1019.37
1019.3
1019.22
1019.15
1019.07
1019
1018.92
1018.85
1018.77
1018.69
1018.62
1018.54
1018.47
1018.39
1018.32
1018.24
1018.17
1018.09
1018.01
1017.94
1017.86
1017.79
1017.71
1017.64
1017.56
1017.49
1017.41
1017.33
1017.26
1017.18
1017.11
1017.03
1016.96
1016.88
1016.81
1016.73
1016.66
1016.58
1016.5
1016.43
1016.35
1016.28
1016.2
1016.13
1016.05
1015.98
1015.9
1015.83
1015.75
1015.68
1015.6
1015.53
1015.45
1015.37
1015.3
1015.22
1015.15
1015.07
1015
1014.92
1014.85
1014.77
1014.7
1014.62
1014.55
1014.47
1014.4
1014.32
1014.24
1014.17
1014.09
1014.02
1013.94
1013.87
1013.79
1013.72
1013.64
1013.57
1013.49
1013.42
1013.34
1013.27
1013.19
1013.12
1013.04
1012.97
1012.89
1012.81
1012.74
1012.66
1012.59
1012.51
1012.44
1012.36
1012.29
1012.21
1012.14
1012.06
1011.99
1011.91
1011.84
1011.76
1011.69
1011.61
1011.54
1011.46
1011.39
1011.31
1011.24
1011.16
1011.09
1011.01
1010.94
1010.86
1010.79
1010.71
1010.63
1010.56
1010.48
1010.41
1010.33
1010.26
1010.18
1010.11
1010.03
1009.96
1009.88
1009.81
1009.73
1009.66
1009.58
1009.51
1009.43
1009.36
1009.28
1009.21
1009.13
1009.06
1008.98
1008.91
1008.83
1008.76
1008.68
1008.61
1008.53
1008.46
1008.38
1008.31
1008.23
1008.16
1008.08
1008.01
1007.93
1007.86
1007.78
1007.71
1007.63
1007.56
1007.48
1007.41
1007.33
1007.26
1007.18
1007.11
1007.03
1006.96
1006.88
1006.81
1006.73
1006.66
1006.58
1006.51
1006.43
1006.36
1006.28
1006.21
1006.13
1006.06
1005.98
1005.91
1005.83
1005.76
1005.68
1005.61
1005.53
1005.46
1005.38
1005.31
1005.23
1005.16
1005.08
1005.01
1004.93
1004.86
1004.78
1004.71
1004.63
1004.56
1004.48
1004.41
1004.33
1004.26
1004.18
1004.11
1004.03
1003.96
1003.88
1003.81
1003.73
1003.65
1003.58
1003.5
1003.43
1003.35
1003.28
1003.2
1003.13
1003.05
1002.98
1002.9
1002.83
1002.75
1002.68
1002.6
1002.53
1002.45
1002.38
1002.3
1002.23
1002.15
1002.08
1002
1001.93
1001.85
1001.78
1001.7
1001.63
1001.55
1001.48
1001.4
1001.33
1001.25
1001.18
1001.1
1001.03
1000.95
1000.88
1000.8
1000.73
1000.65
1000.58
1000.5
1000.43
1000.35
1000.28
1000.2
1000.13
1000.05
999.978
999.903
999.828
999.753
999.678
999.603
999.528
999.453
999.378
999.303
999.228
999.152
999.077
999.002
998.927
998.852
998.777
998.702
998.627
998.552
998.477
998.402
998.326
998.251
998.176
998.101
998.026
997.951
997.876
997.801
997.725
997.65
997.575
997.5
997.425
997.35
997.275
997.2
997.124
997.049
996.974
996.899
996.824
996.749
996.673
996.598
996.523
996.448
996.373
996.298
996.222
996.147
996.072
995.997
995.922
995.846
995.771
995.696
995.621
995.546
995.47
995.395
995.32
995.245
995.169
995.094
995.019
994.944
994.868
994.793
994.718
994.643
994.567
994.492
994.417
994.342
994.266
994.191
994.116
994.04
993.965
993.89
993.814
993.739
993.664
993.589
993.513
993.438
993.363
993.287
993.212
993.137
993.061
992.986
992.91
992.835
992.76
992.114
992.609
992.534
992.458
992.383
992.307
992.232
992.157
992.081
992.006
991.93
991.855
991.779
991.704
991.629
991.553
991.478
991.402
991.327
991.251
991.176
991.1
991.025
990.949
990.874
990.798
990.723
990.647
990.572
990.496
990.421
990.345
990.269
990.194
990.118
990.043
989.967
989.892
989.816
989.74
989.665
989.589
989.514
989.438
989.362
989.287
989.211
989.135
989.06
988.984
988.908
988.833
988.757
988.681
988.606
988.53
988.454
988.379
988.303
988.227
988.151
988.076
988
987.924
987.848
987.773
987.697
987.621
987.545
987.469
987.394
987.318
987.242
987.166
987.09
987.015
986.939
986.863
986.787
986.711
986.635
986.559
986.483
986.407
986.332
986.256
986.18
986.104
986.028
985.952
985.876
985.8
985.724
985.648
985.572
985.496
985.42
985.344
985.268
985.192
985.116
985.04
984.964
984.888
984.811
984.735
984.659
984.583
984.507
984.431
984.355
984.279
984.202
984.126
984.05
983.974
983.898
983.822
983.745
983.669
983.593
983.517
983.44
983.364
983.288
983.212
983.135
983.059
982.983
982.906
982.83
982.754
982.677
982.601
982.525
982.448
982.372
982.295
982.219
982.143
982.066
981.99
981.913
981.837
981.76
981.684
981.607
981.531
981.454
981.378
981.301
981.225
981.148
981.072
980.995
980.918
980.842
980.765
980.689
980.612
980.535
980.459
980.382
980.305
980.229
980.152
980.075
979.998
979.922
979.845
979.768
979.691
979.615
979.538
979.461
979.384
979.307
979.231
979.154
979.077
979
978.923
978.846
978.769
978.692
978.615
978.538
978.461
978.384
978.307
978.23
978.153
978.076
977.999
977.922
977.845
977.768
977.691
977.614
977.537
977.46
977.382
977.305
977.228
977.151
977.074
976.997
976.919
976.842
976.765
976.688
976.61
976.533
976.456
976.378
976.301
976.224
976.146
976.069
975.992
975.914
975.837
975.759
975.682
975.604
975.527
975.449
975.372
975.294
975.217
975.139
975.062
974.984
974.907
974.829
974.751
974.674
974.596
974.518
974.441
974.363
974.285
974.207
974.13
974.052
973.974
973.896
973.819
973.741
973.663
973.585
973.507
973.429
973.351
973.273
973.196
973.118
973.04
972.962
972.884
972.806
972.728
972.65
972.571
972.493
972.415
972.337
972.259
972.181
972.103
972.025
971.946
971.868
971.79
971.712
971.633
971.555
971.477
971.399
971.32
971.242
971.163
971.085
971.007
970.928
970.85
970.771
970.693
970.614
970.536
970.457
970.379
970.3
970.222
970.143
970.064
969.986
969.907
969.829
969.75
969.671
969.592
969.514
969.435
969.356
969.277
969.198
969.12
969.041
968.962
968.883
968.804
968.725
968.646
968.567
968.488
968.409
968.33
968.251
968.172
968.093
968.014
967.935
967.856
967.776
967.697
967.618
967.539
967.459
967.38
967.301
967.222
967.142
967.063
966.984
966.904
966.825
966.745
966.666
966.586
966.507
966.427
966.348
966.268
966.189
966.109
966.029
965.95
965.87
965.79
965.711
965.631
965.551
965.471
965.392
965.312
965.232
965.152
965.072
964.992
964.912
964.832
964.752
964.672
964.592
964.512
964.432
964.352
964.272
964.192
964.112
964.031
963.951
963.871
963.791
963.71
963.63
963.55
963.469
963.389
963.309
963.228
963.148
963.067
962.987
962.906
962.826
962.745
962.665
962.584
962.503
962.423
962.342
962.261
962.181
962.1
962.019
961.938
961.857
961.776
961.696
961.615
961.534
961.453
961.372
961.291
961.21
961.129
961.048
960.966
960.885
960.804
960.723
960.642
960.56
960.479
960.398
960.316
960.235
960.154
960.072
959.991
959.909
959.828
959.746
959.665
959.583
959.502
959.42
959.338
959.257
959.175
959.093
959.011
958.93
958.848
958.766
958.684
958.602
958.52
958.438
958.356
958.274
958.192
958.11
958.028
957.946
957.864
957.781
957.699
957.617
957.535
957.452
957.37
957.288
957.205
957.123
957.04
956.958
956.875
956.793
956.71
956.627
956.545
956.462
956.379
956.297
956.214
956.131
956.048
955.965
955.882
955.8
955.717
955.634
955.551
955.467
955.384
955.301
955.218
955.135
955.052
954.968
954.885
954.802
954.718
954.635
954.552
954.468
954.385
954.301
954.218
954.134
954.05
953.967
953.883
953.799
953.716
953.632
953.548
954.038
953.38
953.296
953.212
953.128
953.044
952.96
952.876
952.792
952.708
952.624
952.54
952.455
952.371
952.287
952.202
952.118
952.033
951.949
951.864
951.78
951.695
951.611
951.526
951.441
951.356
951.272
951.187
951.102
951.017
950.932
950.847
950.762
950.677
950.592
950.507
950.422
950.337
950.251
950.166
950.081
949.995
949.91
949.825
949.739
949.654
949.568
949.482
949.397
949.311
949.225
949.14
949.054
948.968
948.882
948.796
948.71
948.624
948.538
948.452
948.366
948.28
948.194
948.108
948.021
947.935
947.849
947.762
947.676
947.589
947.503
947.416
947.33
947.243
947.156
947.07
946.983
946.896
946.809
946.722
946.635
946.548
946.461
946.374
946.287
946.2
946.113
946.025
945.938
945.851
945.763
945.676
945.588
945.501
945.413
945.325
945.238
945.15
945.062
944.974
944.887
944.799
944.711
944.623
944.535
944.447
944.358
944.27
944.182
944.094
944.005
943.917
943.829
943.74
943.652
943.563
943.474
943.386
943.297
943.208
943.119
943.03
942.942
942.853
942.764
942.674
942.585
942.496
942.407
942.318
942.228
942.139
942.05
941.96
941.871
941.781
941.691
941.602
941.512
941.422
941.332
941.242
941.152
941.062
940.972
940.882
940.792
940.702
940.612
940.521
940.431
940.34
940.25
940.159
940.069
939.978
939.887
939.797
939.706
939.615
939.524
939.433
939.342
939.251
939.16
939.068
938.977
938.886
938.794
938.703
938.611
938.52
938.428
938.336
938.245
938.153
938.061
937.969
937.877
937.785
937.693
937.601
937.509
937.416
937.324
937.232
937.139
937.047
936.954
936.861
936.769
936.676
936.583
936.49
936.397
936.304
936.211
936.118
936.025
935.931
935.838
935.745
935.651
935.558
935.464
935.37
935.276
935.183
935.089
934.995
934.901
934.807
934.713
934.618
934.524
934.43
934.335
934.241
934.146
934.052
933.957
933.862
933.767
933.673
933.578
933.483
933.387
933.292
933.197
933.102
933.006
932.911
932.815
932.72
932.624
932.528
932.433
932.337
932.241
932.145
932.049
931.952
931.856
931.76
931.663
931.567
931.47
931.374
931.277
931.18
931.083
930.986
930.889
930.792
930.695
930.598
930.5
930.403
930.305
930.208
930.11
930.013
929.915
929.817
929.719
929.621
929.523
929.424
929.326
929.228
929.129
929.031
928.932
928.833
928.735
928.636
928.537
928.438
928.339
928.239
928.14
928.041
927.941
927.842
927.742
927.642
927.543
927.443
927.343
927.243
927.142
927.042
926.942
926.841
926.741
926.64
926.539
926.439
926.338
926.237
926.136
926.035
925.933
925.832
925.73
925.629
925.527
925.426
925.324
925.222
925.12
925.018
924.915
924.813
924.711
924.608
924.506
924.403
924.3
924.197
924.094
923.991
923.888
923.785
923.681
923.578
923.474
923.37
923.267
923.163
923.059
922.955
922.85
922.746
922.642
922.537
922.432
922.328
922.223
922.118
922.013
921.907
921.802
921.697
921.591
921.486
921.38
921.274
921.168
921.062
920.956
920.85
920.743
920.637
920.53
920.423
920.316
920.209
920.102
919.995
919.888
919.78
919.673
919.565
919.457
919.349
919.241
919.133
919.025
918.916
918.808
918.699
918.59
918.481
918.372
918.263
918.154
918.044
917.935
917.825
917.715
917.605
917.495
917.385
917.275
917.164
917.054
916.943
916.832
916.721
916.61
916.499
916.388
916.276
916.164
916.053
915.941
915.829
915.716
915.604
915.492
915.379
915.266
915.153
915.04
914.927
914.814
914.7
914.586
914.473
914.359
914.245
914.13
914.016
913.902
913.787
913.672
913.557
913.442
913.327
913.211
913.096
912.98
912.864
912.748
912.632
912.515
912.399
912.282
912.165
912.048
911.931
911.814
911.696
911.578
911.46
911.342
911.224
911.106
910.987
910.869
910.75
910.631
910.512
910.392
910.273
910.153
910.033
909.913
909.793
909.672
909.552
909.431
909.31
909.189
909.067
908.946
908.824
908.702
908.58
908.458
908.335
908.213
908.09
907.967
907.843
907.72
907.596
907.472
907.348
907.224
907.1
906.975
906.85
906.725
906.6
906.474
906.349
906.223
906.097
905.97
905.844
905.717
905.59
905.463
905.336
905.208
905.08
904.952
904.824
904.696
904.567
904.438
904.309
904.179
904.05
903.92
903.79
903.66
903.529
903.921
903.267
903.136
903.004
902.873
902.741
902.608
902.476
902.343
902.21
902.077
901.943
901.81
901.676
901.541
901.407
901.272
901.137
901.002
900.866
900.73
900.594
900.458
900.321
900.184
900.047
899.91
899.772
899.634
899.495
899.357
899.218
899.079
898.939
898.799
898.659
898.519
898.378
898.237
898.096
897.954
897.812
897.67
897.528
897.385
897.242
897.098
896.954
896.81
896.666
896.521
897.09
896.231
896.085
895.939
895.792
895.645
895.498
895.351
895.203
895.055
894.906
894.757
894.608
894.458
894.308
894.158
894.007
893.856
893.705
893.553
893.401
893.248
893.095
892.942
892.788
892.634
892.479
892.324
892.169
892.013
891.857
891.7
891.543
891.385
891.227
891.069
890.91
890.751
890.591
890.431
890.271
890.11
889.948
889.786
889.624
889.461
889.298
889.134
888.97
889.44
888.64
888.474
888.308
888.141
887.974
887.806
887.637
887.469
887.299
887.129
886.959
886.788
886.617
886.445
886.272
886.099
885.925
885.751
885.576
885.401
885.225
885.048
884.871
884.693
884.515
884.336
884.156
883.976
883.795
883.613
883.431
883.248
883.065
882.881
882.696
882.51
882.324
882.137
881.95
881.761
881.572
881.382
881.192
881.001
880.809
880.616
880.423
880.228
880.033
879.838
880.495
879.444
879.245
879.046
878.846
878.646
878.444
878.242
878.038
877.834
877.629
877.423
877.216
877.009
876.8
876.59
876.379
876.168
875.955
875.742
875.527
875.311
875.095
874.877
874.658
874.439
874.218
873.996
873.773
873.548
873.323
873.096
872.869
872.64
872.41
872.179
871.946
871.712
871.477
871.241
871.003
870.764
870.524
870.283
870.04
869.795
869.549
869.302
869.053
869.625
868.552
868.298
868.044
867.787
867.53
867.27
867.009
866.746
866.482
866.216
865.948
865.678
865.407
865.134
864.859
864.582
864.303
864.022
863.74
863.455
863.169
862.88
862.589
862.296
862.002
861.704
861.405
861.104
860.8
860.494
860.185
859.875
859.562
859.246
858.928
858.608
858.284
857.959
857.631
857.3
856.966
856.63
856.291
855.949
855.605
855.257
854.907
854.554
854.198
854.84
853.477
853.112
852.744
852.373
851.999
851.622
851.241
850.858
850.471
850.082
849.689
849.293
848.894
848.492
848.087
847.679
847.268
846.855
846.438
846.018
845.596
845.171
844.743
844.313
843.881
843.446
843.009
842.57
842.13
841.687
841.243
840.798
840.351
839.904
839.455
839.006
838.557
838.107
837.658
837.209
836.76
836.312
835.865
835.42
834.976
834.533
834.092
833.654
833.217
833.978
832.353
831.925
831.5
831.078
830.659
830.245
829.833
829.426
829.022
828.623
828.227
827.836
827.449
827.066
826.688
826.313
825.943
825.578
825.217
824.86
824.508
824.16
823.816
823.477
823.142
822.811
822.484
822.162
821.843
821.529
821.219
820.913
820.611
820.312
820.017
819.727
819.439
819.156
818.876
818.6
818.327
818.057
817.791
817.528
817.268
817.012
816.758
816.508
816.26
816.568
815.775
815.536
815.3
815.067
814.836
814.608
814.383
814.16
813.94
813.722
813.507
813.294
813.083
812.875
812.668
812.464
812.262
812.063
811.865
811.669
811.475
811.284
811.094
810.906
810.72
810.535
810.353
810.172
809.993
809.816
809.64
809.466
809.294
809.123
808.954
808.786
808.62
808.455
808.292
808.13
807.97
807.811
807.653
807.497
807.342
807.189
807.036
806.885
806.735
806.911
806.439
806.293
806.148
806.004
805.861
805.719
805.579
805.439
805.301
805.164
805.027
804.892
804.758
804.624
804.492
804.361
804.23
804.101
803.972
803.845
803.718
803.592
803.467
803.343
803.22
803.098
802.976
802.855
802.735
802.616
802.498
802.381
802.264
802.148
802.032
801.918
801.804
801.691
801.579
801.467
801.356
801.246
801.136
801.028
800.919
800.812
800.705
800.599
800.493
800.388
800.609
800.18
800.077
799.974
799.872
799.771
799.67
799.57
799.47
799.371
799.272
799.174
799.077
798.98
798.883
798.787
798.692
798.597
798.503
798.409
798.316
798.223
798.131
798.039
797.947
797.856
797.766
797.676
797.586
797.497
797.409
797.321
797.233
797.146
797.059
796.972
796.886
796.801
796.716
796.631
796.546
796.463
796.379
796.296
796.213
796.131
796.049
795.967
795.886
795.935
795.725
795.645
795.565
795.486
795.407
795.328
795.25
795.172
795.094
795.017
794.94
794.864
794.787
794.711
794.636
794.561
794.486
794.411
794.337
794.263
794.189
794.116
794.043
793.97
793.898
793.826
793.754
793.683
793.611
793.541
793.47
793.4
793.33
793.26
793.19
793.121
793.052
792.984
792.915
792.847
792.779
792.712
792.644
792.577
792.511
792.444
792.378
792.312
792.246
792.181
792.115
792.05
791.986
791.921
791.857
791.793
791.729
791.665
791.602
791.539
791.476
791.413
791.351
791.289
791.227
791.165
791.104
791.042
790.981
790.921
790.86
790.799
790.739
790.679
790.619
790.56
790.501
790.441
790.382
790.324
790.265
790.207
790.149
790.091
790.033
789.975
789.918
789.861
789.804
789.747
789.691
789.634
789.578
789.522
789.466
789.41
789.355
789.3
789.245
789.19
789.135
789.08
789.026
788.972
788.918
788.864
788.81
788.756
788.703
788.65
788.597
788.544
788.491
788.439
788.386
788.334
788.282
788.23
788.179
788.127
788.076
788.024
787.973
787.922
787.871
787.821
787.77
787.72
787.67
787.62
787.57
787.52
787.471
787.421
787.372
787.323
787.274
787.225
787.176
787.128
787.079
787.031
786.983
786.935
786.887
786.839
786.792
786.744
786.697
786.65
786.602
786.556
786.509
786.462
786.416
786.369
786.323
786.277
786.231
786.185
786.139
786.094
786.048
786.003
785.957
785.912
785.867
785.822
785.778
785.733
785.688
785.644
785.6
785.556
785.512
785.468
785.424
785.38
785.337
785.293
785.25
785.206
785.163
785.12
785.077
785.035
784.992
784.949
784.907
784.865
784.822
784.78
784.738
784.696
784.655
784.613
784.571
784.53
784.489
784.447
784.406
784.365
784.324
784.283
784.242
784.202
784.161
784.121
784.08
784.04
784
783.96
783.92
783.88
783.841
783.801
783.761
783.722
783.682
783.643
783.604
783.565
783.526
783.487
783.448
783.41
783.371
783.333
783.294
783.256
783.218
783.179
783.141
783.103
783.065
783.028
782.99
782.952
782.915
782.877
782.84
782.803
782.766
782.729
782.692
782.655
782.618
782.581
782.544
782.508
782.471
782.435
782.399
782.362
782.326
782.29
782.254
782.218
782.182
782.147
782.111
782.075
782.04
782.004
781.969
781.934
781.898
781.863
781.828
781.793
781.758
781.724
781.689
781.654
781.62
781.585
781.551
781.516
781.482
781.448
781.414
781.38
781.346
781.312
781.278
781.244
781.21
781.177
781.143
781.11
781.076
781.043
781.01
780.977
780.943
780.91
780.877
780.844
780.812
780.779
780.746
780.714
780.681
780.648
780.616
780.584
780.551
780.519
780.487
780.455
780.423
780.391
780.359
780.327
780.295
780.264
780.232
780.2
780.169
780.137
780.106
780.075
780.043
780.012
779.981
779.95
779.919
779.888
779.857
779.826
779.796
779.765
779.734
779.704
779.673
779.643
779.612
779.582
779.552
779.522
779.491
779.461
779.431
779.401
779.371
779.341
779.312
779.282
779.252
779.223
779.193
779.164
779.134
779.105
779.075
779.046
779.017
778.988
778.959
778.929
778.9
778.872
778.843
778.814
778.785
778.756
778.728
778.699
778.67
778.642
778.613
778.585
778.557
778.528
778.5
778.472
778.444
778.416
778.388
778.36
778.332
778.304
778.276
778.248
778.22
778.193
778.165
778.138
778.11
778.083
778.055
778.028
778.001
777.973
777.946
777.919
777.892
777.865
777.838
777.811
777.784
777.757
777.73
777.703
777.676
777.65
777.623
777.597
777.57
777.544
777.517
777.491
777.464
777.438
777.412
777.386
777.359
777.333
777.307
777.281
777.255
777.229
777.203
777.178
777.152
777.126
777.1
777.075
777.049
777.023
776.998
776.972
776.947
776.922
776.896
776.871
776.846
776.82
776.795
776.77
776.745
776.72
776.695
776.67
776.645
776.62
776.595
776.57
776.546
776.521
776.496
776.472
776.447
776.423
776.398
776.374
776.349
776.325
776.301
776.276
776.252
776.228
776.204
776.179
776.155
776.131
776.107
776.083
776.059
776.035
776.012
775.988
775.964
775.94
775.917
775.893
775.869
775.846
775.822
775.799
775.775
775.752
775.728
775.705
775.682
775.658
775.635
775.612
775.589
775.566
775.543
775.52
775.497
775.474
775.451
775.428
775.405
775.382
775.359
775.318
775.314
775.291
775.269
775.246
775.223
775.201
775.178
775.156
775.133
775.111
775.089
775.066
775.044
775.022
775
774.977
774.955
774.933
774.911
774.889
774.867
774.845
774.823
774.801
774.779
774.758
774.736
774.714
774.692
774.671
774.649
774.627
774.606
774.584
774.563
774.541
774.52
774.498
774.477
774.455
774.434
774.413
774.391
774.37
774.349
774.328
774.307
774.286
774.265
774.244
774.223
774.202
774.181
774.16
774.139
774.118
774.097
774.076
774.056
774.035
774.014
773.993
773.973
773.952
773.932
773.911
773.891
773.87
773.85
773.829
773.809
773.789
773.768
773.748
773.728
773.707
773.687
773.667
773.647
773.627
773.607
773.587
773.567
773.547
773.527
773.507
773.487
773.467
773.447
773.427
773.407
773.388
773.368
773.348
773.329
773.309
773.289
773.27
773.25
773.231
773.211
773.192
773.172
773.153
773.133
773.114
773.095
773.075
773.056
773.037
773.018
772.998
772.979
772.96
772.941
772.922
772.903
772.884
772.865
772.846
772.827
772.808
772.789
772.77
772.751
772.732
772.714
772.695
772.676
772.657
772.639
772.62
772.601
772.583
772.564
772.546
772.527
772.509
772.49
772.472
772.453
772.435
772.416
772.398
772.38
772.362
772.343
772.325
772.307
772.289
772.27
772.252
772.234
772.216
772.198
772.18
772.162
772.144
772.126
772.108
772.09
772.072
772.054
772.036
772.019
772.001
771.983
771.965
771.948
771.93
771.912
771.894
771.877
771.859
771.842
771.824
771.807
771.789
771.772
771.754
771.737
771.719
771.702
771.684
771.667
771.65
771.632
771.615
771.598
771.581
771.564
771.546
771.529
771.512
771.495
771.478
771.461
771.444
771.427