/*--------------------------------*- C++ -*----------------------------------*\
| =========                 |                                                 |
| \\      /  F ield         | OpenFOAM: The Open Source CFD Toolbox           |
|  \\    /   O peration     | Version:  2.3.1                                 |
|   \\  /    A nd           | Web:      www.OpenFOAM.org                      |
|    \\/     M anipulation  |                                                 |
\*---------------------------------------------------------------------------*/
FoamFile
{
    version     2.0;
    format      ascii;
    class       volScalarField;
    object      T;
}
// * * * * * * * * * * * * * * * * * * * * * * * * * * * * * * * * * * * * * //

dimensions      [0 0 0 1 0 0 0];

internalField   nonuniform List<scalar>
10000
(
400.010000
400.020000
400.030000
400.040000
400.050000
400.060000
400.070000
400.080000
400.090000
400.100000
400.110000
400.120000
400.130000
400.140000
400.150000
400.160000
400.170000
400.180000
400.190000
400.200000
400.210000
400.220000
400.230000
400.240000
400.250000
400.260000
400.270000
400.280000
400.290000
400.300000
400.310000
400.320000
400.330000
400.340000
400.350000
400.360000
400.370000
400.380000
400.390000
400.400000
400.410000
400.420000
400.430000
400.440000
400.450000
400.460000
400.470000
400.480000
400.490000
400.500000
400.510000
400.520000
400.530000
400.540000
400.550000
400.560000
400.570000
400.580000
400.590000
400.600000
400.610000
400.620000
400.630000
400.640000
400.650000
400.660000
400.670000
400.680000
400.690000
400.700000
400.710000
400.720000
400.730000
400.740000
400.750000
400.760000
400.770000
400.780000
400.790000
400.800000
400.810000
400.820000
400.830000
400.840000
400.850000
400.860000
400.870000
400.880000
400.890000
400.900000
400.910000
400.920000
400.930000
400.940000
400.950000
400.960000
400.970000
400.980000
400.990000
401.000000
401.010000
401.020000
401.030000
401.040000
401.050000
401.060000
401.070000
401.080000
401.090000
401.100000
401.110000
401.120000
401.130000
401.140000
401.150000
401.160000
401.170000
401.180000
401.190000
401.200000
401.210000
401.220000
401.230000
401.240000
401.250000
401.260000
401.270000
401.280000
401.290000
401.300000
401.310000
401.320000
401.330000
401.340000
401.350000
401.360000
401.370000
401.380000
401.390000
401.400000
401.410000
401.420000
401.430000
401.440000
401.450000
401.460000
401.470000
401.480000
401.490000
401.500000
401.510000
401.520000
401.530000
401.540000
401.550000
401.560000
401.570000
401.580000
401.590000
401.600000
401.610000
401.620000
401.630000
401.640000
401.650000
401.660000
401.670000
401.680000
401.690000
401.700000
401.710000
401.720000
401.730000
401.740000
401.750000
401.760000
401.770000
401.780000
401.790000
401.800000
401.810000
401.820000
401.830000
401.840000
401.850000
401.860000
401.870000
401.880000
401.890000
401.900000
401.910000
401.920000
401.930000
401.940000
401.950000
401.960000
401.970000
401.980000
401.990000
402.000000
402.010000
402.020000
402.030000
402.040000
402.050000
402.060000
402.070000
402.080000
402.090000
402.100000
402.110000
402.120000
402.130000
402.140000
402.150000
402.160000
402.170000
402.180000
402.190000
402.200000
402.210000
402.220000
402.230000
402.240000
402.250000
402.260000
402.270000
402.280000
402.290000
402.300000
402.310000
402.320000
402.330000
402.340000
402.350000
402.360000
402.370000
402.380000
402.390000
402.400000
402.410000
402.420000
402.430000
402.440000
402.450000
402.460000
402.470000
402.480000
402.490000
402.500000
402.510000
402.520000
402.530000
402.540000
402.550000
402.560000
402.570000
402.580000
402.590000
402.600000
402.610000
402.620000
402.630000
402.640000
402.650000
402.660000
402.670000
402.680000
402.690000
402.700000
402.710000
402.720000
402.730000
402.740000
402.750000
402.760000
402.770000
402.780000
402.790000
402.800000
402.810000
402.820000
402.830000
402.840000
402.850000
402.860000
402.870000
402.880000
402.890000
402.900000
402.910000
402.920000
402.930000
402.940000
402.950000
402.960000
402.970000
402.980000
402.990000
403.000000
403.010000
403.020000
403.030000
403.040000
403.050000
403.060000
403.070000
403.080000
403.090000
403.100000
403.110000
403.120000
403.130000
403.140000
403.150000
403.160000
403.170000
403.180000
403.190000
403.200000
403.210000
403.220000
403.230000
403.240000
403.250000
403.260000
403.270000
403.280000
403.290000
403.300000
403.310000
403.320000
403.330000
403.340000
403.350000
403.360000
403.370000
403.380000
403.390000
403.400000
403.410000
403.420000
403.430000
403.440000
403.450000
403.460000
403.470000
403.480000
403.490000
403.500000
403.510000
403.520000
403.530000
403.540000
403.550000
403.560000
403.570000
403.580000
403.590000
403.600000
403.610000
403.620000
403.630000
403.640000
403.650000
403.660000
403.670000
403.680000
403.690000
403.700000
403.710000
403.720000
403.730000
403.740000
403.750000
403.760000
403.770000
403.780000
403.790000
403.800000
403.810000
403.820000
403.830000
403.840000
403.850000
403.860000
403.870000
403.880000
403.890000
403.900000
403.910000
403.920000
403.930000
403.940000
403.950000
403.960000
403.970000
403.980000
403.990000
404.000000
404.010000
404.020000
404.030000
404.040000
404.050000
404.060000
404.070000
404.080000
404.090000
404.100000
404.110000
404.120000
404.130000
404.140000
404.150000
404.160000
404.170000
404.180000
404.190000
404.200000
404.210000
404.220000
404.230000
404.240000
404.250000
404.260000
404.270000
404.280000
404.290000
404.300000
404.310000
404.320000
404.330000
404.340000
404.350000
404.360000
404.370000
404.380000
404.390000
404.400000
404.410000
404.420000
404.430000
404.440000
404.450000
404.460000
404.470000
404.480000
404.490000
404.500000
404.510000
404.520000
404.530000
404.540000
404.550000
404.560000
404.570000
404.580000
404.590000
404.600000
404.610000
404.620000
404.630000
404.640000
404.650000
404.660000
404.670000
404.680000
404.690000
404.700000
404.710000
404.720000
404.730000
404.740000
404.750000
404.760000
404.770000
404.780000
404.790000
404.800000
404.810000
404.820000
404.830000
404.840000
404.850000
404.860000
404.870000
404.880000
404.890000
404.900000
404.910000
404.920000
404.930000
404.940000
404.950000
404.960000
404.970000
404.980000
404.990000
405.000000
405.010000
405.020000
405.030000
405.040000
405.050000
405.060000
405.070000
405.080000
405.090000
405.100000
405.110000
405.120000
405.130000
405.140000
405.150000
405.160000
405.170000
405.180000
405.190000
405.200000
405.210000
405.220000
405.230000
405.240000
405.250000
405.260000
405.270000
405.280000
405.290000
405.300000
405.310000
405.320000
405.330000
405.340000
405.350000
405.360000
405.370000
405.380000
405.390000
405.400000
405.410000
405.420000
405.430000
405.440000
405.450000
405.460000
405.470000
405.480000
405.490000
405.500000
405.510000
405.520000
405.530000
405.540000
405.550000
405.560000
405.570000
405.580000
405.590000
405.600000
405.610000
405.620000
405.630000
405.640000
405.650000
405.660000
405.670000
405.680000
405.690000
405.700000
405.710000
405.720000
405.730000
405.740000
405.750000
405.760000
405.770000
405.780000
405.790000
405.800000
405.810000
405.820000
405.830000
405.840000
405.850000
405.860000
405.870000
405.880000
405.890000
405.900000
405.910000
405.920000
405.930000
405.940000
405.950000
405.960000
405.970000
405.980000
405.990000
406.000000
406.010000
406.020000
406.030000
406.040000
406.050000
406.060000
406.070000
406.080000
406.090000
406.100000
406.110000
406.120000
406.130000
406.140000
406.150000
406.160000
406.170000
406.180000
406.190000
406.200000
406.210000
406.220000
406.230000
406.240000
406.250000
406.260000
406.270000
406.280000
406.290000
406.300000
406.310000
406.320000
406.330000
406.340000
406.350000
406.360000
406.370000
406.380000
406.390000
406.400000
406.410000
406.420000
406.430000
406.440000
406.450000
406.460000
406.470000
406.480000
406.490000
406.500000
406.510000
406.520000
406.530000
406.540000
406.550000
406.560000
406.570000
406.580000
406.590000
406.600000
406.610000
406.620000
406.630000
406.640000
406.650000
406.660000
406.670000
406.680000
406.690000
406.700000
406.710000
406.720000
406.730000
406.740000
406.750000
406.760000
406.770000
406.780000
406.790000
406.800000
406.810000
406.820000
406.830000
406.840000
406.850000
406.860000
406.870000
406.880000
406.890000
406.900000
406.910000
406.920000
406.930000
406.940000
406.950000
406.960000
406.970000
406.980000
406.990000
407.000000
407.010000
407.020000
407.030000
407.040000
407.050000
407.060000
407.070000
407.080000
407.090000
407.100000
407.110000
407.120000
407.130000
407.140000
407.150000
407.160000
407.170000
407.180000
407.190000
407.200000
407.210000
407.220000
407.230000
407.240000
407.250000
407.260000
407.270000
407.280000
407.290000
407.300000
407.310000
407.320000
407.330000
407.340000
407.350000
407.360000
407.370000
407.380000
407.390000
407.400000
407.410000
407.420000
407.430000
407.440000
407.450000
407.460000
407.470000
407.480000
407.490000
407.500000
407.510000
407.520000
407.530000
407.540000
407.550000
407.560000
407.570000
407.580000
407.590000
407.600000
407.610000
407.620000
407.630000
407.640000
407.650000
407.660000
407.670000
407.680000
407.690000
407.700000
407.710000
407.720000
407.730000
407.740000
407.750000
407.760000
407.770000
407.780000
407.790000
407.800000
407.810000
407.820000
407.830000
407.840000
407.850000
407.860000
407.870000
407.880000
407.890000
407.900000
407.910000
407.920000
407.930000
407.940000
407.950000
407.960000
407.970000
407.980000
407.990000
408.000000
408.010000
408.020000
408.030000
408.040000
408.050000
408.060000
408.070000
408.080000
408.090000
408.100000
408.110000
408.120000
408.130000
408.140000
408.150000
408.160000
408.170000
408.180000
408.190000
408.200000
408.210000
408.220000
408.230000
408.240000
408.250000
408.260000
408.270000
408.280000
408.290000
408.300000
408.310000
408.320000
408.330000
408.340000
408.350000
408.360000
408.370000
408.380000
408.390000
408.400000
408.410000
408.420000
408.430000
408.440000
408.450000
408.460000
408.470000
408.480000
408.490000
408.500000
408.510000
408.520000
408.530000
408.540000
408.550000
408.560000
408.570000
408.580000
408.590000
408.600000
408.610000
408.620000
408.630000
408.640000
408.650000
408.660000
408.670000
408.680000
408.690000
408.700000
408.710000
408.720000
408.730000
408.740000
408.750000
408.760000
408.770000
408.780000
408.790000
408.800000
408.810000
408.820000
408.830000
408.840000
408.850000
408.860000
408.870000
408.880000
408.890000
408.900000
408.910000
408.920000
408.930000
408.940000
408.950000
408.960000
408.970000
408.980000
408.990000
409.000000
409.010000
409.020000
409.030000
409.040000
409.050000
409.060000
409.070000
409.080000
409.090000
409.100000
409.110000
409.120000
409.130000
409.140000
409.150000
409.160000
409.170000
409.180000
409.190000
409.200000
409.210000
409.220000
409.230000
409.240000
409.250000
409.260000
409.270000
409.280000
409.290000
409.300000
409.310000
409.320000
409.330000
409.340000
409.350000
409.360000
409.370000
409.380000
409.390000
409.400000
409.410000
409.420000
409.430000
409.440000
409.450000
409.460000
409.470000
409.480000
409.490000
409.500000
409.510000
409.520000
409.530000
409.540000
409.550000
409.560000
409.570000
409.580000
409.590000
409.600000
409.610000
409.620000
409.630000
409.640000
409.650000
409.660000
409.670000
409.680000
409.690000
409.700000
409.710000
409.720000
409.730000
409.740000
409.750000
409.760000
409.770000
409.780000
409.790000
409.800000
409.810000
409.820000
409.830000
409.840000
409.850000
409.860000
409.870000
409.880000
409.890000
409.900000
409.910000
409.920000
409.930000
409.940000
409.950000
409.960000
409.970000
409.980000
409.990000
410.000000
410.010000
410.020000
410.030000
410.040000
410.050000
410.060000
410.070000
410.080000
410.090000
410.100000
410.110000
410.120000
410.130000
410.140000
410.150000
410.160000
410.170000
410.180000
410.190000
410.200000
410.210000
410.220000
410.230000
410.240000
410.250000
410.260000
410.270000
410.280000
410.290000
410.300000
410.310000
410.320000
410.330000
410.340000
410.350000
410.360000
410.370000
410.380000
410.390000
410.400000
410.410000
410.420000
410.430000
410.440000
410.450000
410.460000
410.470000
410.480000
410.490000
410.500000
410.510000
410.520000
410.530000
410.540000
410.550000
410.560000
410.570000
410.580000
410.590000
410.600000
410.610000
410.620000
410.630000
410.640000
410.650000
410.660000
410.670000
410.680000
410.690000
410.700000
410.710000
410.720000
410.730000
410.740000
410.750000
410.760000
410.770000
410.780000
410.790000
410.800000
410.810000
410.820000
410.830000
410.840000
410.850000
410.860000
410.870000
410.880000
410.890000
410.900000
410.910000
410.920000
410.930000
410.940000
410.950000
410.960000
410.970000
410.980000
410.990000
411.000000
411.010000
411.020000
411.030000
411.040000
411.050000
411.060000
411.070000
411.080000
411.090000
411.100000
411.110000
411.120000
411.130000
411.140000
411.150000
411.160000
411.170000
411.180000
411.190000
411.200000
411.210000
411.220000
411.230000
411.240000
411.250000
411.260000
411.270000
411.280000
411.290000
411.300000
411.310000
411.320000
411.330000
411.340000
411.350000
411.360000
411.370000
411.380000
411.390000
411.400000
411.410000
411.420000
411.430000
411.440000
411.450000
411.460000
411.470000
411.480000
411.490000
411.500000
411.510000
411.520000
411.530000
411.540000
411.550000
411.560000
411.570000
411.580000
411.590000
411.600000
411.610000
411.620000
411.630000
411.640000
411.650000
411.660000
411.670000
411.680000
411.690000
411.700000
411.710000
411.720000
411.730000
411.740000
411.750000
411.760000
411.770000
411.780000
411.790000
411.800000
411.810000
411.820000
411.830000
411.840000
411.850000
411.860000
411.870000
411.880000
411.890000
411.900000
411.910000
411.920000
411.930000
411.940000
411.950000
411.960000
411.970000
411.980000
411.990000
412.000000
412.010000
412.020000
412.030000
412.040000
412.050000
412.060000
412.070000
412.080000
412.090000
412.100000
412.110000
412.120000
412.130000
412.140000
412.150000
412.160000
412.170000
412.180000
412.190000
412.200000
412.210000
412.220000
412.230000
412.240000
412.250000
412.260000
412.270000
412.280000
412.290000
412.300000
412.310000
412.320000
412.330000
412.340000
412.350000
412.360000
412.370000
412.380000
412.390000
412.400000
412.410000
412.420000
412.430000
412.440000
412.450000
412.460000
412.470000
412.480000
412.490000
412.500000
412.510000
412.520000
412.530000
412.540000
412.550000
412.560000
412.570000
412.580000
412.590000
412.600000
412.610000
412.620000
412.630000
412.640000
412.650000
412.660000
412.670000
412.680000
412.690000
412.700000
412.710000
412.720000
412.730000
412.740000
412.750000
412.760000
412.770000
412.780000
412.790000
412.800000
412.810000
412.820000
412.830000
412.840000
412.850000
412.860000
412.870000
412.880000
412.890000
412.900000
412.910000
412.920000
412.930000
412.940000
412.950000
412.960000
412.970000
412.980000
412.990000
413.000000
413.010000
413.020000
413.030000
413.040000
413.050000
413.060000
413.070000
413.080000
413.090000
413.100000
413.110000
413.120000
413.130000
413.140000
413.150000
413.160000
413.170000
413.180000
413.190000
413.200000
413.210000
413.220000
413.230000
413.240000
413.250000
413.260000
413.270000
413.280000
413.290000
413.300000
413.310000
413.320000
413.330000
413.340000
413.350000
413.360000
413.370000
413.380000
413.390000
413.400000
413.410000
413.420000
413.430000
413.440000
413.450000
413.460000
413.470000
413.480000
413.490000
413.500000
413.510000
413.520000
413.530000
413.540000
413.550000
413.560000
413.570000
413.580000
413.590000
413.600000
413.610000
413.620000
413.630000
413.640000
413.650000
413.660000
413.670000
413.680000
413.690000
413.700000
413.710000
413.720000
413.730000
413.740000
413.750000
413.760000
413.770000
413.780000
413.790000
413.800000
413.810000
413.820000
413.830000
413.840000
413.850000
413.860000
413.870000
413.880000
413.890000
413.900000
413.910000
413.920000
413.930000
413.940000
413.950000
413.960000
413.970000
413.980000
413.990000
414.000000
414.010000
414.020000
414.030000
414.040000
414.050000
414.060000
414.070000
414.080000
414.090000
414.100000
414.110000
414.120000
414.130000
414.140000
414.150000
414.160000
414.170000
414.180000
414.190000
414.200000
414.210000
414.220000
414.230000
414.240000
414.250000
414.260000
414.270000
414.280000
414.290000
414.300000
414.310000
414.320000
414.330000
414.340000
414.350000
414.360000
414.370000
414.380000
414.390000
414.400000
414.410000
414.420000
414.430000
414.440000
414.450000
414.460000
414.470000
414.480000
414.490000
414.500000
414.510000
414.520000
414.530000
414.540000
414.550000
414.560000
414.570000
414.580000
414.590000
414.600000
414.610000
414.620000
414.630000
414.640000
414.650000
414.660000
414.670000
414.680000
414.690000
414.700000
414.710000
414.720000
414.730000
414.740000
414.750000
414.760000
414.770000
414.780000
414.790000
414.800000
414.810000
414.820000
414.830000
414.840000
414.850000
414.860000
414.870000
414.880000
414.890000
414.900000
414.910000
414.920000
414.930000
414.940000
414.950000
414.960000
414.970000
414.980000
414.990000
415.000000
415.010000
415.020000
415.030000
415.040000
415.050000
415.060000
415.070000
415.080000
415.090000
415.100000
415.110000
415.120000
415.130000
415.140000
415.150000
415.160000
415.170000
415.180000
415.190000
415.200000
415.210000
415.220000
415.230000
415.240000
415.250000
415.260000
415.270000
415.280000
415.290000
415.300000
415.310000
415.320000
415.330000
415.340000
415.350000
415.360000
415.370000
415.380000
415.390000
415.400000
415.410000
415.420000
415.430000
415.440000
415.450000
415.460000
415.470000
415.480000
415.490000
415.500000
415.510000
415.520000
415.530000
415.540000
415.550000
415.560000
415.570000
415.580000
415.590000
415.600000
415.610000
415.620000
415.630000
415.640000
415.650000
415.660000
415.670000
415.680000
415.690000
415.700000
415.710000
415.720000
415.730000
415.740000
415.750000
415.760000
415.770000
415.780000
415.790000
415.800000
415.810000
415.820000
415.830000
415.840000
415.850000
415.860000
415.870000
415.880000
415.890000
415.900000
415.910000
415.920000
415.930000
415.940000
415.950000
415.960000
415.970000
415.980000
415.990000
416.000000
416.010000
416.020000
416.030000
416.040000
416.050000
416.060000
416.070000
416.080000
416.090000
416.100000
416.110000
416.120000
416.130000
416.140000
416.150000
416.160000
416.170000
416.180000
416.190000
416.200000
416.210000
416.220000
416.230000
416.240000
416.250000
416.260000
416.270000
416.280000
416.290000
416.300000
416.310000
416.320000
416.330000
416.340000
416.350000
416.360000
416.370000
416.380000
416.390000
416.400000
416.410000
416.420000
416.430000
416.440000
416.450000
416.460000
416.470000
416.480000
416.490000
416.500000
416.510000
416.520000
416.530000
416.540000
416.550000
416.560000
416.570000
416.580000
416.590000
416.600000
416.610000
416.620000
416.630000
416.640000
416.650000
416.660000
416.670000
416.680000
416.690000
416.700000
416.710000
416.720000
416.730000
416.740000
416.750000
416.760000
416.770000
416.780000
416.790000
416.800000
416.810000
416.820000
416.830000
416.840000
416.850000
416.860000
416.870000
416.880000
416.890000
416.900000
416.910000
416.920000
416.930000
416.940000
416.950000
416.960000
416.970000
416.980000
416.990000
417.000000
417.010000
417.020000
417.030000
417.040000
417.050000
417.060000
417.070000
417.080000
417.090000
417.100000
417.110000
417.120000
417.130000
417.140000
417.150000
417.160000
417.170000
417.180000
417.190000
417.200000
417.210000
417.220000
417.230000
417.240000
417.250000
417.260000
417.270000
417.280000
417.290000
417.300000
417.310000
417.320000
417.330000
417.340000
417.350000
417.360000
417.370000
417.380000
417.390000
417.400000
417.410000
417.420000
417.430000
417.440000
417.450000
417.460000
417.470000
417.480000
417.490000
417.500000
417.510000
417.520000
417.530000
417.540000
417.550000
417.560000
417.570000
417.580000
417.590000
417.600000
417.610000
417.620000
417.630000
417.640000
417.650000
417.660000
417.670000
417.680000
417.690000
417.700000
417.710000
417.720000
417.730000
417.740000
417.750000
417.760000
417.770000
417.780000
417.790000
417.800000
417.810000
417.820000
417.830000
417.840000
417.850000
417.860000
417.870000
417.880000
417.890000
417.900000
417.910000
417.920000
417.930000
417.940000
417.950000
417.960000
417.970000
417.980000
417.990000
418.000000
418.010000
418.020000
418.030000
418.040000
418.050000
418.060000
418.070000
418.080000
418.090000
418.100000
418.110000
418.120000
418.130000
418.140000
418.150000
418.160000
418.170000
418.180000
418.190000
418.200000
418.210000
418.220000
418.230000
418.240000
418.250000
418.260000
418.270000
418.280000
418.290000
418.300000
418.310000
418.320000
418.330000
418.340000
418.350000
418.360000
418.370000
418.380000
418.390000
418.400000
418.410000
418.420000
418.430000
418.440000
418.450000
418.460000
418.470000
418.480000
418.490000
418.500000
418.510000
418.520000
418.530000
418.540000
418.550000
418.560000
418.570000
418.580000
418.590000
418.600000
418.610000
418.620000
418.630000
418.640000
418.650000
418.660000
418.670000
418.680000
418.690000
418.700000
418.710000
418.720000
418.730000
418.740000
418.750000
418.760000
418.770000
418.780000
418.790000
418.800000
418.810000
418.820000
418.830000
418.840000
418.850000
418.860000
418.870000
418.880000
418.890000
418.900000
418.910000
418.920000
418.930000
418.940000
418.950000
418.960000
418.970000
418.980000
418.990000
419.000000
419.010000
419.020000
419.030000
419.040000
419.050000
419.060000
419.070000
419.080000
419.090000
419.100000
419.110000
419.120000
419.130000
419.140000
419.150000
419.160000
419.170000
419.180000
419.190000
419.200000
419.210000
419.220000
419.230000
419.240000
419.250000
419.260000
419.270000
419.280000
419.290000
419.300000
419.310000
419.320000
419.330000
419.340000
419.350000
419.360000
419.370000
419.380000
419.390000
419.400000
419.410000
419.420000
419.430000
419.440000
419.450000
419.460000
419.470000
419.480000
419.490000
419.500000
419.510000
419.520000
419.530000
419.540000
419.550000
419.560000
419.570000
419.580000
419.590000
419.600000
419.610000
419.620000
419.630000
419.640000
419.650000
419.660000
419.670000
419.680000
419.690000
419.700000
419.710000
419.720000
419.730000
419.740000
419.750000
419.760000
419.770000
419.780000
419.790000
419.800000
419.810000
419.820000
419.830000
419.840000
419.850000
419.860000
419.870000
419.880000
419.890000
419.900000
419.910000
419.920000
419.930000
419.940000
419.950000
419.960000
419.970000
419.980000
419.990000
420.000000
420.010000
420.020000
420.030000
420.040000
420.050000
420.060000
420.070000
420.080000
420.090000
420.100000
420.110000
420.120000
420.130000
420.140000
420.150000
420.160000
420.170000
420.180000
420.190000
420.200000
420.210000
420.220000
420.230000
420.240000
420.250000
420.260000
420.270000
420.280000
420.290000
420.300000
420.310000
420.320000
420.330000
420.340000
420.350000
420.360000
420.370000
420.380000
420.390000
420.400000
420.410000
420.420000
420.430000
420.440000
420.450000
420.460000
420.470000
420.480000
420.490000
420.500000
420.510000
420.520000
420.530000
420.540000
420.550000
420.560000
420.570000
420.580000
420.590000
420.600000
420.610000
420.620000
420.630000
420.640000
420.650000
420.660000
420.670000
420.680000
420.690000
420.700000
420.710000
420.720000
420.730000
420.740000
420.750000
420.760000
420.770000
420.780000
420.790000
420.800000
420.810000
420.820000
420.830000
420.840000
420.850000
420.860000
420.870000
420.880000
420.890000
420.900000
420.910000
420.920000
420.930000
420.940000
420.950000
420.960000
420.970000
420.980000
420.990000
421.000000
421.010000
421.020000
421.030000
421.040000
421.050000
421.060000
421.070000
421.080000
421.090000
421.100000
421.110000
421.120000
421.130000
421.140000
421.150000
421.160000
421.170000
421.180000
421.190000
421.200000
421.210000
421.220000
421.230000
421.240000
421.250000
421.260000
421.270000
421.280000
421.290000
421.300000
421.310000
421.320000
421.330000
421.340000
421.350000
421.360000
421.370000
421.380000
421.390000
421.400000
421.410000
421.420000
421.430000
421.440000
421.450000
421.460000
421.470000
421.480000
421.490000
421.500000
421.510000
421.520000
421.530000
421.540000
421.550000
421.560000
421.570000
421.580000
421.590000
421.600000
421.610000
421.620000
421.630000
421.640000
421.650000
421.660000
421.670000
421.680000
421.690000
421.700000
421.710000
421.720000
421.730000
421.740000
421.750000
421.760000
421.770000
421.780000
421.790000
421.800000
421.810000
421.820000
421.830000
421.840000
421.850000
421.860000
421.870000
421.880000
421.890000
421.900000
421.910000
421.920000
421.930000
421.940000
421.950000
421.960000
421.970000
421.980000
421.990000
422.000000
422.010000
422.020000
422.030000
422.040000
422.050000
422.060000
422.070000
422.080000
422.090000
422.100000
422.110000
422.120000
422.130000
422.140000
422.150000
422.160000
422.170000
422.180000
422.190000
422.200000
422.210000
422.220000
422.230000
422.240000
422.250000
422.260000
422.270000
422.280000
422.290000
422.300000
422.310000
422.320000
422.330000
422.340000
422.350000
422.360000
422.370000
422.380000
422.390000
422.400000
422.410000
422.420000
422.430000
422.440000
422.450000
422.460000
422.470000
422.480000
422.490000
422.500000
422.510000
422.520000
422.530000
422.540000
422.550000
422.560000
422.570000
422.580000
422.590000
422.600000
422.610000
422.620000
422.630000
422.640000
422.650000
422.660000
422.670000
422.680000
422.690000
422.700000
422.710000
422.720000
422.730000
422.740000
422.750000
422.760000
422.770000
422.780000
422.790000
422.800000
422.810000
422.820000
422.830000
422.840000
422.850000
422.860000
422.870000
422.880000
422.890000
422.900000
422.910000
422.920000
422.930000
422.940000
422.950000
422.960000
422.970000
422.980000
422.990000
423.000000
423.010000
423.020000
423.030000
423.040000
423.050000
423.060000
423.070000
423.080000
423.090000
423.100000
423.110000
423.120000
423.130000
423.140000
423.150000
423.160000
423.170000
423.180000
423.190000
423.200000
423.210000
423.220000
423.230000
423.240000
423.250000
423.260000
423.270000
423.280000
423.290000
423.300000
423.310000
423.320000
423.330000
423.340000
423.350000
423.360000
423.370000
423.380000
423.390000
423.400000
423.410000
423.420000
423.430000
423.440000
423.450000
423.460000
423.470000
423.480000
423.490000
423.500000
423.510000
423.520000
423.530000
423.540000
423.550000
423.560000
423.570000
423.580000
423.590000
423.600000
423.610000
423.620000
423.630000
423.640000
423.650000
423.660000
423.670000
423.680000
423.690000
423.700000
423.710000
423.720000
423.730000
423.740000
423.750000
423.760000
423.770000
423.780000
423.790000
423.800000
423.810000
423.820000
423.830000
423.840000
423.850000
423.860000
423.870000
423.880000
423.890000
423.900000
423.910000
423.920000
423.930000
423.940000
423.950000
423.960000
423.970000
423.980000
423.990000
424.000000
424.010000
424.020000
424.030000
424.040000
424.050000
424.060000
424.070000
424.080000
424.090000
424.100000
424.110000
424.120000
424.130000
424.140000
424.150000
424.160000
424.170000
424.180000
424.190000
424.200000
424.210000
424.220000
424.230000
424.240000
424.250000
424.260000
424.270000
424.280000
424.290000
424.300000
424.310000
424.320000
424.330000
424.340000
424.350000
424.360000
424.370000
424.380000
424.390000
424.400000
424.410000
424.420000
424.430000
424.440000
424.450000
424.460000
424.470000
424.480000
424.490000
424.500000
424.510000
424.520000
424.530000
424.540000
424.550000
424.560000
424.570000
424.580000
424.590000
424.600000
424.610000
424.620000
424.630000
424.640000
424.650000
424.660000
424.670000
424.680000
424.690000
424.700000
424.710000
424.720000
424.730000
424.740000
424.750000
424.760000
424.770000
424.780000
424.790000
424.800000
424.810000
424.820000
424.830000
424.840000
424.850000
424.860000
424.870000
424.880000
424.890000
424.900000
424.910000
424.920000
424.930000
424.940000
424.950000
424.960000
424.970000
424.980000
424.990000
425.000000
425.010000
425.020000
425.030000
425.040000
425.050000
425.060000
425.070000
425.080000
425.090000
425.100000
425.110000
425.120000
425.130000
425.140000
425.150000
425.160000
425.170000
425.180000
425.190000
425.200000
425.210000
425.220000
425.230000
425.240000
425.250000
425.260000
425.270000
425.280000
425.290000
425.300000
425.310000
425.320000
425.330000
425.340000
425.350000
425.360000
425.370000
425.380000
425.390000
425.400000
425.410000
425.420000
425.430000
425.440000
425.450000
425.460000
425.470000
425.480000
425.490000
425.500000
425.510000
425.520000
425.530000
425.540000
425.550000
425.560000
425.570000
425.580000
425.590000
425.600000
425.610000
425.620000
425.630000
425.640000
425.650000
425.660000
425.670000
425.680000
425.690000
425.700000
425.710000
425.720000
425.730000
425.740000
425.750000
425.760000
425.770000
425.780000
425.790000
425.800000
425.810000
425.820000
425.830000
425.840000
425.850000
425.860000
425.870000
425.880000
425.890000
425.900000
425.910000
425.920000
425.930000
425.940000
425.950000
425.960000
425.970000
425.980000
425.990000
426.000000
426.010000
426.020000
426.030000
426.040000
426.050000
426.060000
426.070000
426.080000
426.090000
426.100000
426.110000
426.120000
426.130000
426.140000
426.150000
426.160000
426.170000
426.180000
426.190000
426.200000
426.210000
426.220000
426.230000
426.240000
426.250000
426.260000
426.270000
426.280000
426.290000
426.300000
426.310000
426.320000
426.330000
426.340000
426.350000
426.360000
426.370000
426.380000
426.390000
426.400000
426.410000
426.420000
426.430000
426.440000
426.450000
426.460000
426.470000
426.480000
426.490000
426.500000
426.510000