/*--------------------------------*- C++ -*----------------------------------*\
| =========                 |                                                 |
| \\      /  F ield         | OpenFOAM: The Open Source CFD Toolbox           |
|  \\    /   O peration     | Version:  2.3.1                                 |
|   \\  /    A nd           | Web:      www.OpenFOAM.org                      |
|    \\/     M anipulation  |                                                 |
\*---------------------------------------------------------------------------*/
FoamFile
{
    version     2.0;
    format      ascii;
    class       volScalarField;
    location    "0";
    object      thermo:Cp;
}
// * * * * * * * * * * * * * * * * * * * * * * * * * * * * * * * * * * * * * //

dimensions      [0 2 -2 -1 0 0 0];

internalField   nonuniform List<scalar> 
10000
(
3080.81
3081.03
3081.25
3081.47
3081.69
3081.91
3082.13
3082.35
3082.57
3082.79
3083.01
3083.23
3083.45
3083.67
3083.89
3084.11
3084.33
3084.55
3084.77
3084.99
3085.21
3085.44
3085.66
3085.88
3086.1
3086.32
3086.54
3086.77
3086.99
3087.21
3087.43
3087.65
3087.88
3088.1
3088.32
3088.55
3088.77
3088.99
3089.21
3089.44
3089.66
3089.88
3090.11
3090.33
3090.56
3090.78
3091
3091.23
3091.45
3091.68
3091.9
3092.13
3092.35
3092.58
3092.8
3093.03
3093.25
3093.48
3093.7
3093.93
3094.15
3094.38
3094.61
3094.83
3095.06
3095.28
3095.51
3095.74
3095.96
3096.19
3096.42
3096.64
3096.87
3097.1
3097.33
3097.55
3097.78
3098.01
3098.24
3098.46
3098.69
3098.92
3099.15
3099.38
3099.6
3099.83
3100.06
3100.29
3100.52
3100.75
3100.98
3101.21
3101.44
3101.67
3101.9
3102.13
3102.36
3102.59
3102.82
3103.05
3103.28
3103.51
3103.74
3103.97
3104.2
3104.43
3104.66
3104.89
3105.12
3105.35
3105.59
3105.82
3106.05
3106.28
3106.51
3106.75
3106.98
3107.21
3107.44
3107.68
3107.91
3108.14
3108.37
3108.61
3108.84
3109.07
3109.31
3109.54
3109.77
3110.01
3110.24
3110.48
3110.71
3110.95
3111.18
3111.41
3111.65
3111.88
3112.12
3112.35
3112.59
3112.82
3113.06
3113.3
3113.53
3113.77
3114
3114.24
3114.48
3114.71
3114.95
3115.18
3115.42
3115.66
3115.9
3116.13
3116.37
3116.61
3116.84
3117.08
3117.32
3117.56
3117.8
3118.03
3118.27
3118.51
3118.75
3118.99
3119.23
3119.46
3119.7
3119.94
3120.18
3120.42
3120.66
3120.9
3121.14
3121.38
3121.62
3121.86
3122.1
3122.34
3122.58
3122.82
3123.06
3123.3
3123.55
3123.79
3124.03
3124.27
3124.51
3124.75
3124.99
3125.24
3125.48
3125.72
3125.96
3126.21
3126.45
3126.69
3126.93
3127.18
3127.42
3127.66
3127.91
3128.15
3128.39
3128.64
3128.88
3129.13
3129.37
3129.61
3129.86
3130.1
3130.35
3130.59
3130.84
3131.08
3131.33
3131.57
3131.82
3132.06
3132.31
3132.56
3132.8
3133.05
3133.3
3133.54
3133.79
3134.04
3134.28
3134.53
3134.78
3135.02
3135.27
3135.52
3135.77
3136.01
3136.26
3136.51
3136.76
3137.01
3137.26
3137.5
3137.75
3138
3138.25
3138.5
3138.75
3139
3139.25
3139.5
3139.75
3140
3140.25
3140.5
3140.75
3141
3141.25
3141.5
3141.75
3142
3142.26
3142.51
3142.76
3143.01
3143.26
3143.51
3143.77
3144.02
3144.27
3144.52
3144.78
3145.03
3145.28
3145.54
3145.79
3146.04
3146.3
3146.55
3146.8
3147.06
3147.31
3147.57
3147.82
3148.07
3148.33
3148.58
3148.84
3149.09
3149.35
3149.61
3149.86
3150.12
3150.37
3150.63
3150.89
3151.14
3151.4
3151.65
3151.91
3152.17
3152.43
3152.68
3152.94
3153.2
3153.46
3153.71
3153.97
3154.23
3154.49
3154.75
3155
3155.26
3155.52
3155.78
3156.04
3156.3
3156.56
3156.82
3157.08
3157.34
3157.6
3157.86
3158.12
3158.38
3158.64
3158.9
3159.16
3159.42
3159.68
3159.95
3160.21
3160.47
3160.73
3160.99
3161.25
3161.52
3161.78
3162.04
3162.3
3162.57
3162.83
3163.09
3163.36
3163.62
3163.88
3164.15
3164.41
3164.68
3164.94
3165.21
3165.47
3165.73
3166
3166.26
3166.53
3166.8
3167.06
3167.33
3167.59
3167.86
3168.12
3168.39
3168.66
3168.92
3169.19
3169.46
3169.72
3169.99
3170.26
3170.53
3170.79
3171.06
3171.33
3171.6
3171.87
3172.14
3172.4
3172.67
3172.94
3173.21
3173.48
3173.75
3174.02
3174.29
3174.56
3174.83
3175.1
3175.37
3175.64
3175.91
3176.18
3176.45
3176.73
3177
3177.27
3177.54
3177.81
3178.08
3178.36
3178.63
3178.9
3179.17
3179.45
3179.72
3179.99
3180.27
3180.54
3180.81
3181.09
3181.36
3181.64
3181.91
3182.19
3182.46
3182.74
3183.01
3183.29
3183.56
3183.84
3184.11
3184.39
3184.66
3184.94
3185.22
3185.49
3185.77
3186.05
3186.32
3186.6
3186.88
3187.16
3187.43
3187.71
3187.99
3188.27
3188.55
3188.83
3189.1
3189.38
3189.66
3189.94
3190.22
3190.5
3190.78
3191.06
3191.34
3191.62
3191.9
3192.18
3192.46
3192.74
3193.03
3193.31
3193.59
3193.87
3194.15
3194.43
3194.72
3195
3195.28
3195.56
3195.85
3196.13
3196.41
3196.7
3196.98
3197.26
3197.55
3197.83
3198.12
3198.4
3198.69
3198.97
3199.26
3199.54
3199.83
3200.11
3200.4
3200.68
3200.97
3201.26
3201.54
3201.83
3202.12
3202.4
3202.69
3202.98
3203.27
3203.55
3203.84
3204.13
3204.42
3204.71
3204.99
3205.28
3205.57
3205.86
3206.15
3206.44
3206.73
3207.02
3207.31
3207.6
3207.89
3208.18
3208.47
3208.76
3209.05
3209.35
3209.64
3209.93
3210.22
3210.51
3210.81
3211.1
3211.39
3211.68
3211.98
3212.27
3212.56
3212.86
3213.15
3213.45
3213.74
3214.03
3214.33
3214.62
3214.92
3215.21
3215.51
3215.8
3216.1
3216.4
3216.69
3216.99
3217.29
3217.58
3217.88
3218.18
3218.47
3218.77
3219.07
3219.37
3219.66
3219.96
3220.26
3220.56
3220.86
3221.16
3221.46
3221.76
3222.06
3222.36
3222.66
3222.96
3223.26
3223.56
3223.86
3224.16
3224.46
3224.76
3225.06
3225.36
3225.67
3225.97
3226.27
3226.57
3226.88
3227.18
3227.48
3227.79
3228.09
3228.39
3228.7
3229
3229.31
3229.61
3229.91
3230.22
3230.52
3230.83
3231.14
3231.44
3231.75
3232.05
3232.36
3232.67
3232.97
3233.28
3233.59
3233.89
3234.2
3234.51
3234.82
3235.13
3235.43
3235.74
3236.05
3236.36
3236.67
3236.98
3237.29
3237.6
3237.91
3238.22
3238.53
3238.84
3239.15
3239.46
3239.77
3240.09
3240.4
3240.71
3241.02
3241.33
3241.65
3241.96
3242.27
3242.59
3242.9
3243.21
3243.53
3243.84
3244.16
3244.47
3244.78
3245.1
3245.41
3245.73
3246.05
3246.36
3246.68
3246.99
3247.31
3247.63
3247.94
3248.26
3248.58
3248.9
3249.21
3249.53
3249.85
3250.17
3250.49
3250.8
3251.12
3251.44
3251.76
3252.08
3252.4
3252.72
3253.04
3253.36
3253.68
3254
3254.33
3254.65
3254.97
3255.29
3255.61
3255.94
3256.26
3256.58
3256.9
3257.23
3257.55
3257.87
3258.2
3258.52
3258.85
3259.17
3259.5
3259.82
3260.15
3260.47
3260.8
3261.12
3261.45
3261.78
3262.1
3262.43
3262.76
3263.08
3263.41
3263.74
3264.07
3264.4
3264.72
3265.05
3265.38
3265.71
3266.04
3266.37
3266.7
3267.03
3267.36
3267.69
3268.02
3268.35
3268.68
3269.02
3269.35
3269.68
3270.01
3270.34
3270.68
3271.01
3271.34
3271.68
3272.01
3272.34
3272.68
3273.01
3273.35
3273.68
3274.02
3274.35
3274.69
3275.02
3275.36
3275.7
3276.03
3276.37
3276.71
3277.04
3277.38
3277.72
3278.06
3278.39
3278.73
3279.07
3279.41
3279.75
3280.09
3280.43
3280.77
3281.11
3281.45
3281.79
3282.13
3282.47
3282.81
3283.15
3283.5
3283.84
3284.18
3284.52
3284.87
3285.21
3285.55
3285.9
3286.24
3286.58
3286.93
3287.27
3287.62
3287.96
3288.31
3288.65
3289
3289.35
3289.69
3290.04
3290.39
3290.73
3291.08
3291.43
3291.78
3292.12
3292.47
3292.82
3293.17
3293.52
3293.87
3294.22
3294.57
3294.92
3295.27
3295.62
3295.97
3296.32
3296.67
3297.03
3297.38
3297.73
3298.08
3298.44
3298.79
3299.14
3299.5
3299.85
3300.2
3300.56
3300.91
3301.27
3301.62
3301.98
3302.34
3302.69
3303.05
3303.4
3303.76
3304.12
3304.48
3304.83
3305.19
3305.55
3305.91
3306.27
3306.63
3306.98
3307.34
3307.7
3308.06
3308.42
3308.78
3309.15
3309.51
3309.87
3310.23
3310.59
3310.95
3311.32
3311.68
3312.04
3312.41
3312.77
3313.13
3313.5
3313.86
3314.23
3314.59
3314.96
3315.32
3315.69
3316.06
3316.42
3316.79
3317.16
3317.52
3317.89
3318.26
3318.63
3318.99
3319.36
3319.73
3320.1
3320.47
3320.84
3321.21
3321.58
3321.95
3322.32
3322.69
3323.07
3323.44
3323.81
3324.18
3324.55
3324.93
3325.3
3325.67
3326.05
3326.42
3326.8
3327.17
3327.55
3327.92
3328.3
3328.67
3329.05
3329.43
3329.8
3330.18
3330.56
3330.94
3331.31
3331.69
3332.07
3332.45
3332.83
3333.21
3333.59
3333.97
3334.35
3334.73
3335.11
3335.49
3335.87
3336.25
3336.64
3337.02
3337.4
3337.79
3338.17
3338.55
3338.94
3339.32
3339.71
3340.09
3340.48
3340.86
3341.25
3341.63
3342.02
3342.41
3342.79
3343.18
3343.57
3343.96
3344.34
3344.73
3345.12
3345.51
3345.9
3346.29
3346.68
3347.07
3347.46
3347.85
3348.24
3348.64
3349.03
3349.42
3349.81
3350.21
3350.6
3350.99
3351.39
3351.78
3352.18
3352.57
3352.97
3353.36
3353.76
3354.16
3354.55
3354.95
3355.35
3355.74
3356.14
3356.54
3356.94
3357.34
3357.74
3358.14
3358.54
3358.94
3359.34
3359.74
3360.14
3360.54
3360.94
3361.34
3361.75
3362.15
3362.55
3362.95
3363.36
3363.76
3364.17
3364.57
3364.98
3365.38
3365.79
3366.19
3366.6
3367.01
3367.42
3367.82
3368.23
3368.64
3369.05
3369.46
3369.87
3370.27
3370.68
3371.09
3371.51
3371.92
3372.33
3372.74
3373.15
3373.56
3373.98
3374.39
3374.8
3375.22
3375.63
3376.04
3376.46
3376.87
3377.29
3377.71
3378.12
3378.54
3378.95
3379.37
3379.79
3380.21
3380.63
3381.04
3381.46
3381.88
3382.3
3382.72
3383.14
3383.56
3383.98
3384.41
3384.83
3385.25
3385.67
3386.1
3386.52
3386.94
3387.37
3387.79
3388.22
3388.64
3389.07
3389.49
3389.92
3390.34
3390.77
3391.2
3391.63
3392.05
3392.48
3392.91
3393.34
3393.77
3394.2
3394.63
3395.06
3395.49
3395.92
3396.36
3396.79
3397.22
3397.65
3398.09
3398.52
3398.95
3399.39
3399.82
3400.26
3400.69
3401.13
3401.57
3402
3402.44
3402.88
3403.31
3403.75
3404.19
3404.63
3405.07
3405.51
3405.95
3406.39
3406.83
3407.27
3407.71
3408.16
3408.6
3409.04
3409.49
3409.93
3410.37
3410.82
3411.26
3411.71
3412.15
3412.6
3413.05
3413.49
3413.94
3414.39
3414.84
3415.28
3415.73
3416.18
3416.63
3417.08
3417.53
3417.98
3418.43
3418.89
3419.34
3419.79
3420.24
3420.7
3421.15
3421.6
3422.06
3422.51
3422.97
3423.42
3423.88
3424.34
3424.79
3425.25
3425.71
3426.17
3426.63
3427.09
3427.54
3428
3428.47
3428.93
3429.39
3429.85
3430.31
3430.77
3431.24
3431.7
3432.16
3432.63
3433.09
3433.56
3434.02
3434.49
3434.95
3435.42
3435.89
3436.36
3436.82
3437.29
3437.76
3438.23
3438.7
3439.17
3439.64
3440.11
3440.58
3441.05
3441.53
3442
3442.47
3442.95
3443.42
3443.9
3444.37
3444.85
3445.32
3445.8
3446.27
3446.75
3447.23
3447.71
3448.19
3448.67
3449.14
3449.62
3450.1
3450.59
3451.07
3451.55
3452.03
3452.51
3453
3453.48
3453.96
3454.45
3454.93
3455.42
3455.9
3456.39
3456.88
3457.36
3457.85
3458.34
3458.83
3459.32
3459.81
3460.3
3460.79
3461.28
3461.77
3462.26
3462.75
3463.25
3463.74
3464.23
3464.73
3465.22
3465.72
3466.21
3466.71
3467.21
3467.7
3468.2
3468.7
3469.2
3469.7
3470.2
3470.7
3471.2
3471.7
3472.2
3472.7
3473.2
3473.71
3474.21
3474.71
3475.22
3475.72
3476.23
3476.74
3477.24
3477.75
3478.26
3478.76
3479.27
3479.78
3480.29
3480.8
3481.31
3481.82
3482.33
3482.84
3483.36
3483.87
3484.38
3484.9
3485.41
3485.93
3486.44
3486.96
3487.47
3487.99
3488.51
3489.03
3489.54
3490.06
3490.58
3491.1
3491.62
3492.14
3492.67
3493.19
3493.71
3494.23
3494.76
3495.28
3495.81
3496.33
3496.86
3497.38
3497.91
3498.44
3498.97
3499.49
3500.02
3500.55
3501.08
3501.61
3502.14
3502.68
3503.21
3503.74
3504.27
3504.81
3505.34
3505.88
3506.41
3506.95
3507.48
3508.02
3508.56
3509.1
3509.64
3510.18
3510.72
3511.26
3511.8
3512.34
3512.88
3513.42
3513.97
3514.51
3515.05
3515.6
3516.14
3516.69
3517.24
3517.78
3518.33
3518.88
3519.43
3519.98
3520.53
3521.08
3521.63
3522.18
3522.73
3523.29
3523.84
3524.39
3524.95
3525.5
3526.06
3526.61
3527.17
3527.73
3528.29
3528.84
3529.4
3529.96
3530.52
3531.09
3531.65
3532.21
3532.77
3533.33
3533.9
3534.46
3535.03
3535.59
3536.16
3536.73
3537.29
3537.86
3538.43
3539
3539.57
3540.14
3540.71
3541.28
3541.86
3542.43
3543
3543.58
3544.15
3544.73
3545.3
3545.88
3546.46
3547.03
3547.61
3548.19
3548.77
3549.35
3549.93
3550.51
3551.1
3551.68
3552.26
3552.85
3553.43
3554.02
3554.6
3555.19
3555.78
3556.36
3556.95
3557.54
3558.13
3558.72
3559.31
3559.91
3560.5
3561.09
3561.69
3562.28
3562.87
3563.47
3564.07
3564.66
3565.26
3565.86
3566.46
3567.06
3567.66
3568.26
3568.86
3569.46
3570.07
3570.67
3571.27
3571.88
3572.48
3573.09
3573.7
3574.31
3574.91
3575.52
3576.13
3576.74
3577.35
3577.97
3578.58
3579.19
3579.8
3580.42
3581.03
3581.65
3582.27
3582.88
3583.5
3584.12
3584.74
3585.36
3585.98
3586.6
3587.22
3587.85
3588.47
3589.09
3589.72
3590.34
3590.97
3591.6
3592.23
3592.85
3593.48
3594.11
3594.74
3595.38
3596.01
3596.64
3597.27
3597.91
3598.54
3599.18
3599.81
3600.45
3601.09
3601.73
3602.37
3603.01
3603.65
3604.29
3604.93
3605.58
3606.22
3606.86
3607.51
3608.16
3608.8
3609.45
3610.1
3610.75
3611.4
3612.05
3612.7
3613.35
3614
3614.66
3615.31
3615.97
3616.62
3617.28
3617.94
3618.59
3619.25
3619.91
3620.57
3621.24
3621.9
3622.56
3623.22
3623.89
3624.55
3625.22
3625.89
3626.55
3627.22
3627.89
3628.56
3629.23
3629.9
3630.58
3631.25
3631.92
3632.6
3633.27
3633.95
3634.63
3635.31
3635.99
3636.66
3637.35
3638.03
3638.71
3639.39
3640.08
3640.76
3641.45
3642.13
3642.82
3643.51
3644.2
3644.88
3645.58
3646.27
3646.96
3647.65
3648.35
3649.04
3649.74
3650.43
3651.13
3651.83
3652.53
3653.23
3653.93
3654.63
3655.33
3656.03
3656.74
3657.44
3658.15
3658.85
3659.56
3660.27
3660.98
3661.69
3662.4
3663.11
3663.83
3664.54
3665.25
3665.97
3666.69
3667.4
3668.12
3668.84
3669.56
3670.28
3671
3671.73
3672.45
3673.17
3673.9
3674.63
3675.35
3676.08
3676.81
3677.54
3678.27
3679
3679.73
3680.47
3681.2
3681.94
3682.68
3683.41
3684.15
3684.89
3685.63
3686.37
3687.11
3687.86
3688.6
3689.35
3690.09
3690.84
3691.59
3692.33
3693.08
3693.83
3694.59
3695.34
3696.09
3696.85
3697.6
3698.36
3699.12
3699.88
3700.63
3701.4
3702.16
3702.92
3703.68
3704.45
3705.21
3705.98
3706.75
3707.51
3708.28
3709.05
3709.83
3710.6
3711.37
3712.15
3712.92
3713.7
3714.47
3715.25
3716.03
3716.81
3717.59
3718.38
3719.16
3719.95
3720.73
3721.52
3722.31
3723.1
3723.88
3724.68
3725.47
3726.26
3727.06
3727.85
3728.65
3729.44
3730.24
3731.04
3731.84
3732.64
3733.45
3734.25
3735.06
3735.86
3736.67
3737.48
3738.29
3739.1
3739.91
3740.72
3741.53
3742.35
3743.16
3743.98
3744.8
3745.62
3746.44
3747.26
3748.08
3748.91
3749.73
3750.56
3751.38
3752.21
3753.04
3753.87
3754.7
3755.53
3756.37
3757.2
3758.04
3758.88
3759.72
3760.56
3761.4
3762.24
3763.08
3763.93
3764.77
3765.62
3766.47
3767.31
3768.16
3769.02
3769.87
3770.72
3771.58
3772.43
3773.29
3774.15
3775.01
3775.87
3776.73
3777.6
3778.46
3779.33
3780.19
3781.06
3781.93
3782.8
3783.67
3784.55
3785.42
3786.3
3787.17
3788.05
3788.93
3789.81
3790.69
3791.58
3792.46
3793.35
3794.24
3795.12
3796.01
3796.9
3797.8
3798.69
3799.58
3800.48
3801.38
3802.28
3803.18
3804.08
3804.98
3805.88
3806.79
3807.7
3808.6
3809.51
3810.42
3811.34
3812.25
3813.16
3814.08
3815
3815.91
3816.83
3817.76
3818.68
3819.6
3820.53
3821.45
3822.38
3823.31
3824.24
3825.17
3826.11
3827.04
3827.98
3828.92
3829.86
3830.8
3831.74
3832.68
3833.63
3834.57
3835.52
3836.47
3837.42
3838.37
3839.32
3840.28
3841.24
3842.19
3843.15
3844.11
3845.07
3846.04
3847
3847.97
3848.94
3849.91
3850.88
3851.85
3852.82
3853.8
3854.77
3855.75
3856.73
3857.71
3858.7
3859.68
3860.67
3861.65
3862.64
3863.63
3864.62
3865.62
3866.61
3867.61
3868.61
3869.61
3870.61
3871.61
3872.61
3873.62
3874.63
3875.64
3876.65
3877.66
3878.67
3879.69
3880.7
3881.72
3882.74
3883.76
3884.79
3885.81
3886.84
3887.87
3888.9
3889.93
3890.96
3892
3893.03
3894.07
3895.11
3896.15
3897.19
3898.24
3899.28
3900.33
3901.38
3902.43
3903.49
3904.54
3905.6
3906.66
3907.71
3908.78
3909.84
3910.9
3911.97
3913.04
3914.11
3915.18
3916.25
3917.33
3918.41
3919.49
3920.57
3921.65
3922.73
3923.82
3924.91
3926
3927.09
3928.18
3929.27
3930.37
3931.47
3932.57
3933.67
3934.78
3935.88
3936.99
3938.1
3939.21
3940.32
3941.44
3942.55
3943.67
3944.79
3945.92
3947.04
3948.17
3949.29
3950.42
3951.56
3952.69
3953.82
3954.96
3956.1
3957.24
3958.39
3959.53
3960.68
3961.83
3962.98
3964.13
3965.29
3966.44
3967.6
3968.76
3969.93
3971.09
3972.26
3973.43
3974.6
3975.77
3976.95
3978.12
3979.3
3980.48
3981.67
3982.85
3984.04
3985.23
3986.42
3987.61
3988.81
3990.01
3991.21
3992.41
3993.61
3994.82
3996.03
3997.24
3998.45
3999.66
4000.88
4002.1
4003.32
4004.54
4005.77
4006.99
4008.22
4009.45
4010.69
4011.92
4013.16
4014.4
4015.65
4016.89
4018.14
4019.39
4020.64
4021.89
4023.15
4024.41
4025.67
4026.93
4028.2
4029.46
4030.73
4032.01
4033.28
4034.56
4035.84
4037.12
4038.4
4039.69
4040.98
4042.27
4043.56
4044.85
4046.15
4047.45
4048.75
4050.06
4051.37
4052.68
4053.99
4055.3
4056.62
4057.94
4059.26
4060.59
4061.91
4063.24
4064.57
4065.91
4067.25
4068.59
4069.93
4071.27
4072.62
4073.97
4075.32
4076.67
4078.03
4079.39
4080.75
4082.12
4083.48
4084.85
4086.23
4087.6
4088.98
4090.36
4091.74
4093.13
4094.52
4095.91
4097.3
4098.7
4100.1
4101.5
4102.9
4104.31
4105.72
4107.13
4108.55
4109.97
4111.39
4112.81
4114.24
4115.67
4117.1
4118.53
4119.97
4121.41
4122.85
4124.3
4125.75
4127.2
4128.65
4130.11
4131.57
4133.03
4134.5
4135.97
4137.44
4138.91
4140.39
4141.87
4143.36
4144.84
4146.33
4147.83
4149.32
4150.82
4152.32
4153.82
4155.33
4156.84
4158.36
4159.87
4161.39
4162.92
4164.44
4165.97
4167.5
4169.04
4170.58
4172.12
4173.66
4175.21
4176.76
4178.32
4179.87
4181.43
4183
4184.56
4186.13
4187.71
4189.28
4190.86
4192.45
4194.03
4195.62
4197.22
4198.81
4200.41
4202.02
4203.62
4205.23
4206.85
4208.46
4210.08
4211.71
4213.33
4214.96
4216.6
4218.24
4219.88
4221.52
4223.17
4224.82
4226.47
4228.13
4229.79
4231.46
4233.13
4234.8
4236.48
4238.16
4239.84
4241.53
4243.22
4244.91
4246.61
4248.31
4250.02
4251.73
4253.44
4255.16
4256.88
4258.6
4260.33
4262.06
4263.8
4265.54
4267.28
4269.03
4270.78
4272.53
4274.29
4276.05
4277.82
4279.59
4281.36
4283.14
4284.92
4286.71
4288.5
4290.29
4292.09
4293.9
4295.7
4297.51
4299.33
4301.15
4302.97
4304.79
4306.63
4308.46
4310.3
4312.14
4313.99
4315.84
4317.7
4319.56
4321.42
4323.29
4325.17
4327.04
4328.93
4330.81
4332.7
4334.6
4336.5
4338.4
4340.31
4342.22
4344.14
4346.06
4347.99
4349.92
4351.85
4353.79
4355.74
4357.69
4359.64
4361.6
4363.56
4365.53
4367.5
4369.48
4371.46
4373.45
4375.44
4377.43
4379.43
4381.44
4383.45
4385.47
4387.48
4389.51
4391.54
4393.57
4395.61
4397.66
4399.71
4401.76
4403.82
4405.89
4407.96
4410.03
4412.11
4414.19
4416.28
4418.38
4420.48
4422.59
4424.7
4426.81
4428.93
4431.06
4433.19
4435.33
4437.47
4439.62
4441.77
4443.93
4446.09
4448.26
4450.44
4452.62
4454.8
4457
4459.19
4461.4
4463.6
4465.82
4468.04
4470.26
4472.49
4474.73
4476.97
4479.22
4481.47
4483.73
4486
4488.27
4490.55
4492.83
4495.12
4497.41
4499.71
4502.02
4504.33
4506.65
4508.98
4511.31
4513.65
4515.99
4518.34
4520.7
4523.06
4525.43
4527.8
4530.18
4532.57
4534.97
4537.37
4539.77
4542.19
4544.61
4547.03
4549.46
4551.9
4554.35
4556.8
4559.26
4561.73
4564.2
4566.68
4569.16
4571.66
4574.16
4576.66
4579.18
4581.7
4584.23
4586.76
4589.3
4591.85
4594.4
4596.97
4599.54
4602.11
4604.7
4607.29
4609.89
4612.49
4615.11
4617.73
4620.36
4622.99
4625.63
4628.28
4630.94
4633.61
4636.28
4638.96
4641.65
4644.35
4647.05
4649.76
4652.48
4655.21
4657.94
4660.69
4663.44
4666.2
4668.96
4671.74
4674.52
4677.31
4680.11
4682.92
4685.74
4688.56
4691.4
4694.24
4697.09
4699.94
4702.81
4705.69
4708.57
4711.46
4714.36
4717.27
4720.19
4723.12
4726.06
4729
4731.95
4734.92
4737.89
4740.87
4743.86
4746.86
4749.87
4752.88
4755.91
4758.95
4761.99
4765.05
4768.11
4771.19
4774.27
4777.36
4780.46
4783.58
4786.7
4789.83
4792.97
4796.12
4799.28
4802.46
4805.64
4808.83
4812.03
4815.24
4818.46
4821.7
4824.94
4828.19
4831.46
4834.73
4838.01
4841.31
4844.62
4847.93
4851.26
4854.6
4857.95
4861.31
4864.68
4868.06
4871.45
4874.86
4878.27
4881.7
4885.14
4888.59
4892.05
4895.52
4899
4902.5
4906.01
4909.53
4913.06
4916.6
4920.16
4923.72
4927.3
4930.89
4934.5
4938.11
4941.74
4945.38
4949.03
4952.7
4956.38
4960.07
4963.77
4967.49
4971.22
4974.96
4978.72
4982.49
4986.27
4990.06
4993.87
4997.69
5001.53
5005.38
5009.24
5013.12
5017.01
5020.91
5024.83
5028.76
5032.7
5036.66
5040.64
5044.63
5048.63
5052.65
5056.68
5060.73
5064.79
5068.87
5072.96
5077.06
5081.19
5085.32
5089.47
5093.64
5097.83
5102.02
5106.24
5110.47
5114.71
5118.98
5123.25
5127.55
5131.86
5136.18
5140.53
5144.89
5149.26
5153.65
5158.06
5162.49
5166.93
5171.39
5175.87
5180.37
5184.88
5189.41
5193.96
5198.52
5203.1
5207.71
5212.33
5216.96
5221.62
5226.29
5230.99
5235.7
5240.43
5245.18
5249.94
5254.73
5259.54
5264.36
5269.21
5274.07
5278.96
5283.86
5288.79
5293.73
5298.7
5303.68
5308.69
5313.72
5318.76
5323.83
5328.92
5334.03
5339.16
5344.32
5349.49
5354.69
5359.91
5365.15
5370.41
5375.69
5381
5386.33
5391.69
5397.06
5402.46
5407.88
5413.33
5418.8
5424.29
5429.81
5435.35
5440.92
5446.5
5452.12
5457.76
5463.42
5469.11
5474.83
5480.57
5486.33
5492.12
5497.94
5503.78
5509.65
5515.55
5521.47
5527.42
5533.4
5539.4
5545.43
5551.49
5557.58
5563.69
5569.84
5576.01
5582.21
5588.44
5594.7
5600.98
5607.3
5613.65
5620.03
5626.43
5632.87
5639.34
5645.84
5652.37
5658.93
5665.52
5672.15
5678.8
5685.49
5692.22
5698.97
5705.76
5712.58
5719.43
5726.32
5733.24
5740.2
5747.19
5754.22
5761.28
5768.38
5775.51
5782.68
5789.88
5797.12
5804.4
5811.71
5819.07
5826.46
5833.88
5841.35
5848.86
5856.4
5863.98
5871.61
5879.27
5886.97
5894.71
5902.5
5910.32
5918.19
5926.1
5934.05
5942.04
5950.08
5958.16
5966.28
5974.45
5982.66
5990.92
5999.22
6007.57
6015.96
6024.4
6032.89
6041.42
6050
6058.63
6067.31
6076.03
6084.81
6093.63
6102.51
6111.43
6120.41
6129.44
6138.52
6147.65
6156.83
6166.07
6175.36
6184.71
6194.11
6203.56
6213.08
6222.64
6232.27
6241.95
6251.69
6261.48
6271.34
6281.26
6291.23
6301.27
6311.37
6321.52
6331.75
6342.03
6352.38
6362.79
6373.26
6383.8
6394.41
6405.08
6415.82
6426.63
6437.51
6448.46
6459.47
6470.56
6481.71
6492.94
6504.24
6515.62
6527.07
6538.59
6550.19
6561.87
6573.62
6585.45
6597.36
6609.35
6621.41
6633.56
6645.8
6658.11
6670.51
6682.99
6695.56
6708.21
6720.95
6733.78
6746.7
6759.7
6772.8
6785.99
6799.28
6812.65
6826.12
6839.69
6853.36
6867.12
6880.98
6894.94
6909
6923.17
6937.44
6951.81
6966.29
6980.87
6995.57
7010.37
7025.28
7040.31
7055.45
7070.7
7086.07
7101.56
7117.16
7132.88
7148.73
7164.69
7180.79
7197
7213.35
7229.82
7246.42
7263.15
7280.02
7297.02
7314.16
7331.43
7348.85
7366.4
7384.1
7401.94
7419.93
7438.07
7456.36
7474.8
7493.39
7512.14
7531.05
7550.12
7569.34
7588.74
7608.29
7628.02
7647.91
7667.98
7688.22
7708.64
7729.24
7750.02
7770.98
7792.13
7813.47
7835
7856.72
7878.64
7900.75
7923.07
7945.59
7968.32
7991.26
8014.41
8037.77
8061.35
8085.16
8109.19
8133.44
8157.93
8182.64
8207.6
8232.8
8258.23
8283.92
8309.85
8336.04
8362.49
8389.2
8416.17
8443.41
8470.92
8498.71
8526.78
8555.13
8583.77
8612.7
8641.93
8671.46
8701.3
8731.44
8761.9
8792.68
8823.78
8855.2
8886.97
8919.07
8951.51
8984.3
9017.44
9050.94
9084.81
9119.04
9153.65
9188.64
9224.01
9259.78
9295.94
9332.5
9369.48
9406.87
9444.68
9482.92
9521.6
9560.71
9600.28
9640.29
9680.77
9721.72
9763.14
9805.04
9847.43
9890.32
9933.71
9977.61
10022
10067
10112.5
10158.5
10205
10252.2
10299.9
10348.1
10397
10446.4
10496.4
10547
10598.3
10650.2
10702.6
10755.8
10809.6
10864
10919.1
10974.8
11031.3
11088.4
11146.2
11204.7
11263.9
11323.9
11384.5
11445.9
11508
11570.9
11634.5
11698.9
11764
11829.9
11896.5
11963.9
12032.1
12101.1
12170.9
12241.4
12312.7
12384.8
12457.7
12531.3
12605.7
12680.9
12756.9
12833.6
12911
12989.2
13068.1
13147.8
13228.1
13309.1
13390.7
13473
13555.9
13639.4
13723.5
13808.1
13893.1
13978.7
14064.6
14150.9
14237.5
14324.4
14411.5
14498.8
14586.1
14673.5
14760.9
14848.1
14935.1
15021.8
15108.2
15194
15279.4
15364
15447.9
15530.9
15612.8
15693.7
15773.3
15851.5
15928.3
16003.4
16076.7
16148.1
16217.5
16284.7
16349.5
16411.9
16471.6
16528.6
16582.7
16633.8
16681.7
16726.4
16767.6
16805.3
16839.4
16869.8
16896.3
16919
16937.6
16952.3
16962.8
16969.2
16971.4
16969.4
16963.3
16952.9
16938.4
16919.7
16897
16870.1
16839.3
16804.6
16766
16723.8
16677.8
16628.4
16575.5
16519.3
16460
16397.7
16332.4
16264.4
16193.9
16120.8
16045.4
15967.9
15888.4
15806.9
15723.8
15639
15552.8
15465.3
15376.6
15286.8
15196.1
15104.6
15012.4
14919.6
14826.4
14732.7
14638.8
14544.7
14450.5
14356.3
14262.1
14168.1
14074.3
13980.8
13887.6
13794.7
13702.4
13610.5
13519.1
13428.3
13338.1
13248.6
13159.8
13071.6
12984.2
12897.6
12811.7
12726.6
12642.3
12558.9
12476.3
12394.5
12313.6
12233.6
12154.4
12076.1
11998.7
11922.2
11846.5
11771.7
11697.8
11624.8
11552.6
11481.3
11410.9
11341.3
11272.6
11204.7
11137.7
11071.5
11006.1
10941.6
10877.8
10814.9
10752.7
10691.3
10630.8
10570.9
10511.8
10453.5
10395.9
10339.1
10282.9
10227.5
10172.8
10118.7
10065.4
10012.7
9960.66
9909.29
9858.56
9808.47
9759
9710.14
9661.9
9614.25
9567.19
9520.71
9474.8
9429.46
9384.66
9340.42
9296.71
9253.53
9210.88
9168.73
9127.09
9085.95
9045.3
9005.13
8965.44
8926.21
8887.45
8849.13
8811.27
8773.84
8736.85
8700.28
8664.13
8628.4
8593.07
8558.14
8523.61
8489.46
8455.7
8422.31
8389.3
8356.65
8324.36
8292.42
8260.84
8229.59
8198.69
8168.12
8137.87
8107.96
8078.35
8049.07
8020.09
7991.42
7963.05
7934.97
7907.19
7879.69
7852.47
7825.54
7798.88
7772.49
7746.37
7720.51
7694.91
7669.56
7644.47
7619.63
7595.03
7570.67
7546.56
7522.67
7499.02
7475.6
7452.4
7429.42
7406.66
7384.12
7361.8
7339.68
7317.77
7296.06
7274.56
7253.25
7232.14
7211.22
7190.5
7169.96
7149.61
7129.45
7109.46
7089.66
7070.03
7050.57
7031.29
7012.18
6993.23
6974.45
6955.83
6937.37
6919.08
6900.94
6882.95
6865.12
6847.44
6829.91
6812.53
6795.29
6778.2
6761.25
6744.43
6727.76
6711.23
6694.83
6678.56
6662.43
6646.42
6630.55
6614.8
6599.18
6583.68
6568.31
6553.06
6537.92
6522.91
6508.01
6493.23
6478.57
6464.01
6449.57
6435.24
6421.02
6406.91
6392.9
6379
6365.21
6351.52
6337.93
6324.44
6311.05
6297.76
6284.57
6271.47
6258.47
6245.57
6232.76
6220.04
6207.41
6194.87
6182.43
6170.07
6157.8
6145.61
6133.51
6121.5
6109.57
6097.72
6085.96
6074.28
6062.68
6051.15
6039.71
6028.34
6017.06
6005.84
5994.71
5983.65
5972.66
5961.75
5950.91
5940.14
5929.44
5918.82
5908.26
5897.77
5887.35
5877
5866.72
5856.5
5846.35
5836.26
5826.24
5816.28
5806.38
5796.55
5786.78
5777.07
5767.43
5757.84
5748.31
5738.84
5729.43
5720.08
5710.79
5701.55
5692.37
5683.25
5674.18
5665.16
5656.2
5647.3
5638.45
5629.65
5620.9
5612.21
5603.56
5594.97
5586.43
5577.94
5569.5
5561.11
5552.76
5544.47
5536.22
5528.02
5519.87
5511.77
5503.71
5495.69
5487.73
5479.8
5471.93
5464.09
5456.3
5448.56
5440.86
5433.2
5425.58
5418
5410.47
5402.98
5395.53
5388.12
5380.75
5373.42
5366.13
5358.88
5351.67
5344.5
5337.37
5330.27
5323.21
5316.19
5309.21
5302.26
5295.35
5288.48
5281.65
5274.84
5268.08
5261.35
5254.65
5247.99
5241.36
5234.77
5228.21
5221.69
5215.2
5208.74
5202.31
5195.92
5189.56
5183.23
5176.93
5170.67
5164.43
5158.23
5152.06
5145.91
5139.8
5133.72
5127.67
5121.65
5115.65
5109.69
5103.76
5097.85
5091.97
5086.13
5080.31
5074.51
5068.75
5063.01
5057.3
5051.62
5045.97
5040.34
5034.73
5029.16
5023.61
5018.09
5012.59
5007.12
5001.67
4996.25
4990.85
4985.48
4980.13
4974.81
4969.51
4964.24
4958.99
4953.76
4948.56
4943.38
4938.23
4933.1
4927.99
4922.9
4917.84
4912.8
4907.78
4902.79
4897.81
4892.86
4887.93
4883.02
4878.14
4873.27
4868.43
4863.6
4858.8
4854.02
4849.26
4844.52
4839.8
4835.1
4830.42
4825.76
4821.13
4816.51
4811.91
4807.33
4802.77
4798.22
4793.7
4789.2
4784.71
4780.25
4775.8
4771.37
4766.96
4762.57
4758.2
4753.84
4749.5
4745.18
4740.88
4736.6
4732.33
4728.08
4723.85
4719.63
4715.43
4711.25
4707.09
4702.94
4698.81
4694.7
4690.6
4686.52
4682.45
4678.4
4674.37
4670.35
4666.35
4662.36
4658.39
4654.44
4650.5
4646.58
4642.67
4638.77
4634.9
4631.03
4627.18
4623.35
4619.53
4615.73
4611.94
4608.16
4604.4
4600.66
4596.93
4593.21
4589.5
4585.81
4582.14
4578.48
4574.83
4571.19
4567.57
4563.97
4560.37
4556.79
4553.22
4549.67
4546.13
4542.6
4539.08
4535.58
4532.09
4528.62
4525.15
4521.7
4518.26
4514.84
4511.42
4508.02
4504.63
4501.26
4497.89
4494.54
4491.2
4487.87
4484.55
4481.25
4477.95
4474.67
4471.4
4468.14
4464.9
4461.66
4458.44
4455.22
4452.02
4448.83
4445.65
4442.48
4439.33
4436.18
4433.04
4429.92
4426.81
4423.7
4420.61
4417.53
4414.46
4411.4
4408.35
4405.31
4402.28
4399.26
4396.25
4393.25
4390.26
4387.28
4384.31
4381.35
4378.4
4375.46
4372.54
4369.62
4366.71
4363.81
4360.91
4358.03
4355.16
4352.3
4349.45
4346.6
4343.77
4340.95
4338.13
4335.32
4332.53
4329.74
4326.96
4324.19
4321.43
4318.68
4315.93
4313.2
4310.47
4307.76
4305.05
4302.35
4299.66
4296.98
4294.3
4291.64
4288.98
4286.33
4283.69
4281.06
4278.44
4275.82
4273.21
4270.61
4268.02
4265.44
4262.87
4260.3
4257.74
4255.19
4252.65
4250.11
4247.59
4245.07
4242.55
4240.05
4237.55
4235.07
4232.58
4230.11
4227.64
4225.19
4222.73
4220.29
4217.85
4215.43
4213
4210.59
4208.18
4205.78
4203.39
4201.01
4198.63
4196.26
4193.89
4191.53
4189.18
4186.84
4184.5
4182.18
4179.85
4177.54
4175.23
4172.93
4170.63
4168.34
4166.06
4163.78
4161.52
4159.25
4157
4154.75
4152.51
4150.27
4148.04
4145.82
4143.6
4141.39
4139.19
4136.99
4134.8
4132.61
4130.43
4128.26
4126.09
4123.93
4121.78
4119.63
4117.49
4115.35
4113.22
4111.1
4108.98
4106.87
4104.76
4102.66
4100.57
4098.48
4096.39
4094.32
4092.25
4090.18
4088.12
4086.07
4084.02
4081.97
4079.94
4077.9
4075.88
4073.86
4071.84
4069.83
4067.83
4065.83
4063.84
4061.85
4059.87
4057.89
4055.92
4053.95
4051.99
4050.03
4048.08
4046.14
4044.2
4042.26
4040.33
4038.41
4036.49
4034.57
4032.66
4030.76
4028.86
4026.97
4025.08
4023.19
4021.31
4019.44
4017.57
4015.7
4013.85
4011.99
4010.14
4008.3
4006.45
4004.62
4002.79
4000.96
3999.14
3997.32
3995.51
3993.71
3991.9
3990.1
3988.31
3986.52
3984.74
3982.96
3981.18
3979.41
3977.65
3975.89
3974.13
3972.38
3970.63
3968.88
3967.15
3965.41
3963.68
3961.95
3960.23
3958.51
3956.8
3955.09
3953.39
3951.69
3949.99
3948.3
3946.61
3944.93
3943.25
3941.57
3939.9
3938.24
3936.57
3934.91
3933.26
3931.61
3929.96
3928.32
3926.68
3925.05
3923.42
3921.79
3920.17
3918.55
3916.93
3915.32
3913.72
3912.11
3910.52
3908.92
3907.33
3905.74
3904.16
3902.58
3901
3899.43
3897.86
3896.3
3894.74
3893.18
3891.62
3890.07
3888.53
3886.99
3885.45
3883.91
3882.38
3880.85
3879.33
3877.81
3876.29
3874.78
3873.27
3871.76
3870.26
3868.76
3867.26
3865.77
3864.28
3862.79
3861.31
3859.83
3858.36
3856.89
3855.42
3853.95
3852.49
3851.03
3849.58
3848.12
3846.68
3845.23
3843.79
3842.35
3840.92
3839.48
3838.06
3836.63
3835.21
3833.79
3832.37
3830.96
3829.55
3828.15
3826.74
3825.34
3823.95
3822.55
3821.16
3819.78
3818.39
3817.01
3815.63
3814.26
3812.89
3811.52
3810.15
3808.79
3807.43
3806.07
3804.72
3803.37
3802.02
3800.68
3799.34
3798
3796.66
3795.33
3794
3792.67
3791.35
3790.03
3788.71
3787.39
3786.08
3784.77
3783.46
3782.16
3780.86
3779.56
3778.27
3776.97
3775.68
3774.4