/*--------------------------------*- C++ -*----------------------------------*\
| =========                 |                                                 |
| \\      /  F ield         | OpenFOAM: The Open Source CFD Toolbox           |
|  \\    /   O peration     | Version:  2.4.0                                 |
|   \\  /    A nd           | Web:      www.OpenFOAM.org                      |
|    \\/     M anipulation  |                                                 |
\*---------------------------------------------------------------------------*/
FoamFile
{
    version     2.0;
    format      ascii;
    class       volScalarField;
    location    "1e-06";
    object      alphaSgs;
}
// * * * * * * * * * * * * * * * * * * * * * * * * * * * * * * * * * * * * * //

dimensions      [1 -1 -1 0 0 0 0];

internalField   nonuniform List<scalar> 
10000
(
7.52451e-15
7.52391e-15
0
0
1.44599e-14
2.5084e-26
2.45431e-18
2.89202e-14
1.44626e-14
4.91279e-18
4.91419e-18
1.28951e-13
3.87031e-13
3.87054e-13
3.871e-13
1.29041e-13
7.22787e-15
2.19698e-17
7.22917e-15
7.2292e-15
2.58088e-13
2.58089e-13
4.40022e-17
4.40147e-17
7.22812e-15
7.22815e-15
7.22942e-15
1.2907e-13
1.29049e-13
7.22828e-15
1.29072e-13
1.29072e-13
2.16901e-14
1.44593e-14
1.23697e-18
7.23094e-15
1.29031e-13
2.58085e-13
1.29054e-13
2.21081e-17
1.29077e-13
2.58134e-13
3.87214e-13
1.29123e-13
2.16875e-14
8.85846e-17
1.29103e-13
7.22635e-15
6.64957e-17
6.65148e-17
1.29128e-13
2.5819e-13
2.58213e-13
2.58236e-13
2.5826e-13
1.29219e-13
7.22165e-15
1.77781e-16
1.29221e-13
1.29244e-13
3.87378e-13
1.29268e-13
2.44802e-16
2.5836e-13
2.44943e-16
2.89126e-14
2.1682e-14
1.29249e-13
1.78346e-16
7.22077e-15
7.22205e-15
7.22208e-15
1.56234e-16
7.22339e-15
7.22342e-15
2.58285e-13
3.87362e-13
1.78812e-16
7.22103e-15
1.78915e-16
2.58335e-13
3.87415e-13
1.29303e-13
1.44511e-14
2.16837e-14
7.22123e-15
7.22252e-15
1.79331e-16
7.22383e-15
1.44553e-14
2.58302e-13
3.87388e-13
1.29265e-13
2.02101e-16
1.44543e-14
7.22152e-15
1.57327e-16
7.22284e-15
7.22413e-15
1.44571e-14
1.44585e-14
7.22674e-15
7.22803e-15
1.29181e-13
3.87343e-13
1.12672e-16
2.1692e-14
2.89266e-14
1.44627e-14
2.25609e-17
1.29118e-13
2.58214e-13
4.51614e-17
6.7762e-17
1.29143e-13
7.2297e-15
6.78217e-17
1.29145e-13
2.58268e-13
2.58269e-13
7.22732e-15
2.16947e-14
1.44624e-14
4.53076e-17
7.23125e-15
1.29149e-13
1.29127e-13
1.4464e-14
7.23137e-15
1.44666e-14
7.23271e-15
2.58192e-13
3.35935e-25
1.29131e-13
1.25483e-26
1.44657e-14
2.17025e-14
7.23421e-15
1.29043e-13
2.17041e-14
2.5514e-18
2.58135e-13
7.23692e-15
1.44714e-14
2.17071e-14
5.11037e-18
6.45444e-13
3.87259e-13
1.27873e-18
1.44705e-14
2.17052e-14
1.44732e-14
5.121e-18
1.29006e-13
5.12405e-18
5.12557e-18
5.1271e-18
5.12863e-18
7.24002e-15
7.24005e-15
2.17113e-14
7.2414e-15
2.58067e-13
1.28988e-13
2.58115e-13
1.29012e-13
1.29036e-13
5.14395e-18
2.58189e-13
3.87296e-13
1.28714e-18
1.28753e-18
7.23663e-15
1.4472e-14
7.23798e-15
3.86721e-18
7.23934e-15
7.23937e-15
5.16092e-18
2.58178e-13
3.87315e-13
1.2909e-13
1.29178e-18
1.44727e-14
1.29256e-18
1.29069e-13
7.23709e-15
1.44742e-14
2.58822e-18
2.5819e-13
1.29095e-13
5.16523e-13
6.45691e-13
1.2919e-13
1.29237e-13
6.94354e-17
2.17019e-14
6.94774e-17
4.63322e-17
6.95194e-17
4.63602e-17
7.23239e-15
7.23372e-15
1.44701e-14
1.29173e-13
2.24001e-25
4.64445e-17
7.23648e-15
2.17069e-14
7.23785e-15
1.30274e-18
2.60628e-18
1.30353e-18
5.16574e-13
3.87444e-13
4.65715e-17
1.29203e-13
7.2342e-15
1.44698e-14
7.23557e-15
7.2356e-15
7.23694e-15
1.2916e-13
1.29138e-13
1.44728e-14
7.23708e-15
1.44755e-14
7.23845e-15
1.29094e-13
7.23983e-15
7.23986e-15
1.29095e-13
3.9345e-18
7.23996e-15
1.29097e-13
3.93811e-18
2.62621e-18
7.24141e-15
2.62782e-18
2.58247e-13
2.62943e-18
2.63024e-18
7.24027e-15
7.2403e-15
1.44794e-14
7.24168e-15
6.58569e-18
1.29081e-13
2.58234e-13
1.29106e-13
7.24186e-15
1.44785e-14
1.44812e-14
1.44813e-14
7.24595e-15
1.29038e-13
1.29015e-13
1.29063e-13
2.58221e-13
3.87452e-13
3.87454e-13
1.2916e-13
1.2916e-13
0
0
0
0
1.29187e-13
7.23849e-15
2.17143e-14
1.32693e-18
1.29142e-13
1.32775e-18
7.23999e-15
1.32857e-18
2.58336e-13
2.58361e-13
2.58385e-13
2.37409e-17
1.44751e-14
7.23756e-15
1.29195e-13
2.58391e-13
1.44767e-14
2.17144e-14
1.29174e-13
7.24043e-15
7.23913e-15
2.66874e-18
1.33479e-18
2.67041e-18
2.17191e-14
1.44813e-14
1.29107e-13
3.87513e-13
2.58335e-13
3.87588e-13
3.8759e-13
4.77789e-17
1.29254e-13
7.23688e-15
2.89543e-14
7.23828e-15
1.34065e-18
7.23969e-15
7.24107e-15
1.44809e-14
7.24248e-15
4.02826e-18
4.02952e-18
4.03079e-18
1.29141e-13
4.03332e-18
2.68973e-18
2.58357e-13
2.58383e-13
1.29192e-13
1.29217e-13
2.58434e-13
2.40476e-17
7.23753e-15
2.40628e-17
1.29244e-13
3.87684e-13
2.5849e-13
2.58539e-13
1.29318e-13
1.44651e-16
1.29344e-13
2.17135e-14
2.17136e-14
7.24169e-17
7.24399e-17
7.24629e-17
2.1718e-14
1.293e-13
2.58456e-13
7.23538e-15
2.58507e-13
1.29302e-13
2.58557e-13
2.58559e-13
1.29377e-13
2.5861e-13
1.29402e-13
1.29427e-13
1.94034e-16
2.18358e-16
1.29429e-13
1.29454e-13
1.29455e-13
2.4293e-16
2.43007e-16
2.43085e-16
2.58721e-13
5.172e-13
5.17252e-13
2.58822e-13
3.89558e-16
1.29631e-13
7.21973e-15
7.21839e-15
2.58853e-13
1.29634e-13
4.14702e-16
2.58905e-13
7.21852e-15
1.44576e-14
3.90809e-16
4.15368e-16
3.9106e-16
1.44606e-14
1.4462e-14
7.22145e-15
2.58844e-13
1.29594e-13
1.44623e-14
2.17058e-14
7.22296e-15
2.58802e-13
3.18761e-16
1.29598e-13
7.22444e-15
1.44641e-14
2.58808e-13
2.58834e-13
1.29602e-13
1.44643e-14
2.17069e-14
1.44672e-14
2.89538e-14
3.61979e-14
7.23162e-15
2.58672e-13
1.7242e-16
7.23171e-15
1.72532e-16
1.4476e-14
2.17189e-14
2.58655e-13
5.17165e-13
2.58707e-13
1.97564e-16
1.44736e-14
7.23198e-15
7.2334e-15
1.44766e-14
1.4478e-14
7.23627e-15
2.58643e-13
2.58644e-13
2.58695e-13
2.58696e-13
1.29473e-13
7.23229e-15
7.23093e-15
1.7366e-16
1.29475e-13
1.29451e-13
1.44746e-14
7.23247e-15
1.29453e-13
2.58734e-13
1.98924e-16
1.44749e-14
1.99055e-16
3.88021e-13
1.29482e-13
1.29533e-13
3.88077e-13
2.58844e-13
2.99171e-16
7.22585e-15
1.44713e-14
2.17155e-14
2.49638e-16
2.58802e-13
1.29539e-13
7.22882e-15
2.17174e-14
2.89632e-14
2.17218e-14
7.23595e-15
1.25149e-16
7.23741e-15
1.25232e-16
7.23888e-15
1.4482e-14
7.52136e-17
7.52386e-17
1.44851e-14
7.24045e-15
7.2433e-15
1.44867e-14
1.29299e-13
1.293e-13
7.24343e-15
1.29326e-13
2.58604e-13
1.29353e-13
5.03426e-17
1.29379e-13
2.58659e-13
1.00786e-16
1.00819e-16
7.2395e-15
1.44847e-14
7.24098e-15
2.58667e-13
2.58668e-13
1.01021e-16
7.23969e-15
1.44851e-14
1.29387e-13
7.24263e-15
1.44853e-14
2.53061e-17
7.24273e-15
1.44898e-14
7.24421e-15
1.2929e-13
2.17371e-14
2.17372e-14
2.58558e-13
4.26519e-18
2.89848e-14
7.25014e-15
7.11583e-18
5.69458e-18
2.58515e-13
1.2922e-13
1.29246e-13
1.29247e-13
2.85209e-18
2.85305e-18
1.29274e-13
2.85497e-18
7.24768e-15
7.24915e-15
2.85787e-18
2.58579e-13
2.8598e-18
1.43038e-18
7.24933e-15
2.17409e-14
1.44974e-14
2.58561e-13
1.29204e-13
1.44961e-14
2.58564e-13
2.58566e-13
3.87953e-13
3.87954e-13
1.29361e-13
3.88035e-13
2.58725e-13
7.24117e-15
1.02635e-16
2.58755e-13
1.02705e-16
7.23986e-15
1.29444e-13
1.29444e-13
7.23996e-15
7.23999e-15
1.02915e-16
1.29447e-13
1.02985e-16
1.44875e-14
7.2416e-15
1.29424e-13
2.58771e-13
1.03162e-16
7.24028e-15
1.29452e-13
1.03268e-16
1.29479e-13
1.29454e-13
1.44867e-14
7.24048e-15
1.03445e-16
7.24199e-15
7.24202e-15
7.24351e-15
7.24354e-15
1.4493e-14
7.24506e-15
1.29357e-13
2.58741e-13
3.88101e-13
7.24374e-15
1.44905e-14
1.29412e-13
5.19546e-17
1.44921e-14
7.24537e-15
2.60042e-17
1.44952e-14
7.24693e-15
1.44983e-14
2.89938e-14
7.25287e-15
5.84028e-18
7.2544e-15
2.90002e-14
2.17532e-14
7.26036e-15
1.17008e-17
1.3168e-17
1.1709e-17
2.58508e-13
2.58535e-13
1.2919e-13
8.79396e-18
7.25774e-15
8.80009e-18
7.25929e-15
1.29219e-13
2.58543e-13
7.25647e-15
1.2922e-13
2.58599e-13
1.29248e-13
2.58654e-13
3.88036e-13
1.29328e-13
1.47233e-18
1.47284e-18
3.88122e-13
3.88124e-13
7.24656e-15
1.44961e-14
2.63323e-17
2.58772e-13
1.29413e-13
5.27202e-17
5.27387e-17
5.27572e-17
7.24684e-15
7.24687e-15
7.24839e-15
7.24842e-15
0
1.29392e-13
0
7.24856e-15
1.45002e-14
4.77751e-29
5.17529e-13
4.77658e-29
1.44975e-14
7.25026e-15
0
1.29372e-13
0
7.2504e-15
7.25044e-15
2.58776e-13
3.88179e-13
2.58831e-13
1.29456e-13
7.98099e-17
1.44968e-14
1.44969e-14
2.66317e-17
1.29433e-13
2.5884e-13
5.33202e-17
8.00088e-17
1.29462e-13
1.44974e-14
8.00944e-17
2.58848e-13
8.01516e-17
1.29492e-13
8.02089e-17
1.06983e-16
8.02662e-17
2.17477e-14
7.24675e-15
7.24979e-15
1.2947e-13
2.58834e-13
7.24689e-15
1.44999e-14
7.24846e-15
1.2942e-13
7.25004e-15
2.17532e-14
3.77354e-26
3.01227e-18
7.25168e-15
7.25473e-15
1.4505e-14
1.45081e-14
2.90118e-14
2.17631e-14
7.26247e-15
1.29212e-13
1.20882e-17
7.26259e-15
2.58643e-13
3.88074e-13
3.88129e-13
7.25972e-15
2.17611e-14
9.08913e-18
1.29271e-13
2.58705e-13
7.58251e-18
1.45108e-14
1.293e-13
5.17583e-13
6.07482e-18
2.17606e-14
1.45112e-14
7.60181e-18
1.29277e-13
7.60734e-18
7.61011e-18
7.61288e-18
2.58748e-13
7.26042e-15
2.17631e-14
7.26202e-15
1.4515e-14
1.45166e-14
7.26519e-15
7.26676e-15
2.17729e-14
1.45215e-14
1.83444e-17
1.83512e-17
2.58572e-13
3.88024e-13
1.53095e-17
2.58658e-13
5.17536e-13
3.88168e-13
3.88197e-13
1.29345e-13
4.60296e-18
2.58829e-13
2.5883e-13
2.17623e-14
1.2943e-13
2.58807e-13
4.73035e-29
3.07656e-18
2.90151e-14
2.17645e-14
6.15994e-18
2.58787e-13
6.16449e-18
7.25858e-15
2.58818e-13
2.58819e-13
1.45112e-14
7.25719e-15
1.29356e-13
7.25881e-15
4.63708e-18
2.58827e-13
1.29386e-13
7.25742e-15
7.25745e-15
1.29388e-13
1.29389e-13
3.09943e-18
2.17666e-14
1.45122e-14
1.29336e-13
6.20811e-18
7.26086e-15
7.2609e-15
7.76882e-18
1.45173e-14
2.9027e-14
1.45206e-14
2.58709e-13
3.88191e-13
1.29286e-13
1.29315e-13
2.58798e-13
1.29344e-13
6.23834e-18
1.29373e-13
2.58858e-13
2.58888e-13
1.2943e-13
1.56251e-18
1.45122e-14
1.45123e-14
2.58894e-13
5.17874e-13
2.58952e-13
2.79496e-17
1.45095e-14
7.254e-15
1.29465e-13
1.45113e-14
3.62784e-14
1.45146e-14
7.2636e-15
1.45179e-14
7.26525e-15
7.26529e-15
1.45228e-14
1.10121e-17
2.58746e-13
1.10205e-17
1.29304e-13
1.29304e-13
9.45687e-18
9.46046e-18
1.29334e-13
9.46765e-18
7.89271e-18
1.29336e-13
7.26424e-15
7.26428e-15
7.2659e-15
1.45224e-14
7.26756e-15
7.26919e-15
1.29284e-13
3.88277e-13
1.29313e-13
1.29342e-13
2.58855e-13
1.29372e-13
6.34799e-18
1.452e-14
7.26321e-15
9.53292e-18
7.26488e-15
1.29347e-13
5.17901e-13
2.58895e-13
1.29462e-13
5.17994e-13
1.5931e-18
2.177e-14
7.25882e-15
1.45177e-14
1.45178e-14
1.2941e-13
6.38712e-18
1.2944e-13
2.58937e-13
3.19726e-18
2.58997e-13
3.88526e-13
1.29528e-13
7.25603e-15
1.29558e-13
3.88591e-13
1.29588e-13
7.25297e-15
8.58922e-17
1.2959e-13
8.59588e-17
1.4511e-14
1.45111e-14
7.2564e-15
1.29565e-13
2.24655e-25
1.4513e-14
0
0
0
1.45165e-14
2.51802e-26
1.29484e-13
1.25888e-26
1.29514e-13
7.25846e-15
1.4517e-14
2.17772e-14
1.45204e-14
1.29431e-13
7.26512e-15
1.45222e-14
8.09645e-18
7.26686e-15
1.45257e-14
2.17862e-14
7.27022e-15
1.46022e-17
7.27193e-15
2.58845e-13
2.58847e-13
1.45295e-14
2.90478e-14
2.1792e-14
7.27707e-15
1.95311e-17
7.27878e-15
1.45381e-14
2.11838e-17
7.28218e-15
1.454e-14
1.29124e-13
1.29125e-13
3.88279e-13
1.29155e-13
7.27756e-15
2.12509e-17
1.29215e-13
3.88318e-13
2.58812e-13
2.58842e-13
3.8844e-13
3.88472e-13
9.83544e-18
2.1788e-14
2.17897e-14
7.27313e-15
7.27481e-15
1.45349e-14
2.58853e-13
3.88399e-13
2.58914e-13
1.2934e-13
1.294e-13
2.58947e-13
1.2943e-13
3.88587e-13
3.88618e-13
2.591e-13
3.8871e-13
2.51852e-26
1.45178e-14
1.29582e-13
7.26064e-15
7.25903e-15
7.26237e-15
1.45215e-14
1.29526e-13
1.29527e-13
7.26253e-15
1.45235e-14
1.45252e-14
1.45269e-14
1.45287e-14
1.45304e-14
1.45322e-14
7.27276e-15
1.32941e-17
2.58948e-13
1.29356e-13
1.29416e-13
2.58982e-13
1.29447e-13
1.29448e-13
7.26811e-15
6.66862e-18
8.33916e-18
7.26823e-15
7.26994e-15
7.26998e-15
7.27169e-15
1.29423e-13
3.88598e-13
1.29454e-13
1.29484e-13
1.29485e-13
1.45288e-14
7.26696e-15
1.29457e-13
6.70678e-18
2.59096e-13
2.59097e-13
3.35751e-18
7.26552e-15
3.36026e-18
3.88744e-13
3.36302e-18
1.25965e-26
2.59167e-13
1.29614e-13
2.59229e-13
1.29645e-13
2.59292e-13
7.25918e-15
2.90436e-14
3.01217e-17
1.12387e-25
1.2965e-13
2.5924e-13
6.03429e-17
1.29682e-13
2.59305e-13
7.25782e-15
1.20885e-16
6.04678e-17
1.20986e-16
2.59312e-13
1.29747e-13
2.59375e-13
1.51483e-16
2.17794e-14
2.17812e-14
2.17847e-14
1.45232e-14
1.45267e-14
1.45268e-14
7.26684e-15
7.26688e-15
1.29543e-13
2.59178e-13
1.29574e-13
1.70605e-18
1.70677e-18
1.29607e-13
1.70819e-18
7.26378e-15
1.29609e-13
1.71034e-18
1.45278e-14
2.17935e-14
1.45314e-14
6.85285e-18
7.27091e-15
1.4535e-14
8.57686e-18
1.29462e-13
2.5914e-13
2.59141e-13
5.15479e-18
1.29556e-13
1.29557e-13
1.45322e-14
3.44233e-18
3.88831e-13
3.88894e-13
3.88927e-13
2.59337e-13
7.26119e-15
7.2595e-15
3.08092e-17
1.29718e-13
5.18658e-13
3.89065e-13
3.89129e-13
1.85248e-16
7.2511e-15
2.59506e-13
1.45179e-14
2.17813e-14
1.54702e-16
1.54768e-16
7.25651e-15
1.45218e-14
7.25832e-15
7.26009e-15
7.26013e-15
6.20657e-17
7.26194e-15
7.26198e-15
3.10727e-17
3.1086e-17
7.26383e-15
2.17951e-14
2.90626e-14
1.45349e-14
1.29549e-13
3.88898e-13
2.59256e-13
1.74777e-18
1.74852e-18
1.29646e-13
1.29647e-13
1.29678e-13
5.18717e-13
3.89071e-13
2.59486e-13
3.89169e-13
2.59552e-13
2.59585e-13
2.50731e-16
2.17832e-14
2.1785e-14
1.45223e-14
7.25764e-15
1.25637e-16
1.4526e-14
2.90592e-14
6.29004e-17
2.59379e-13
1.45298e-14
7.26319e-15
3.89075e-13
3.89109e-13
1.29788e-13
1.2982e-13
1.29821e-13
1.57869e-16
2.5955e-13
1.29855e-13
2.21306e-16
1.89774e-16
7.25474e-15
7.25655e-15
1.90023e-16
7.25839e-15
2.90586e-14
7.26024e-15
6.34523e-17
1.29799e-13
2.59473e-13
1.27072e-16
1.27128e-16
1.29834e-13
2.59542e-13
1.29867e-13
1.91028e-16
7.25704e-15
7.25707e-15
1.59401e-16
1.59472e-16
7.25897e-15
1.29873e-13
3.89269e-13
1.29906e-13
2.23755e-16
2.23854e-16
1.29941e-13
1.29941e-13
1.29974e-13
1.29975e-13
1.30008e-13
2.59729e-13
7.25041e-15
7.24864e-15
3.89456e-13
1.30044e-13
3.85632e-16
1.45174e-14
1.45156e-14
2.59741e-13
1.30049e-13
1.45176e-14
7.24892e-15
1.30019e-13
3.22511e-16
3.22656e-16
2.59785e-13
1.30055e-13
1.45163e-14
3.55559e-16
2.59791e-13
7.2492e-15
1.45166e-14
7.25108e-15
1.45204e-14
7.25296e-15
2.59405e-16
1.29998e-13
7.25488e-15
2.1792e-14
1.45263e-14
1.45282e-14
2.17997e-14
1.4532e-14
7.26602e-15
7.26606e-15
7.26792e-15
1.29779e-13
2.59493e-13
6.52339e-17
7.26625e-15
7.26629e-15
1.29782e-13
1.29783e-13
1.29816e-13
6.54122e-17
1.45348e-14
1.45367e-14
7.2684e-15
0
0
7.27035e-15
1.45408e-14
2.18131e-14
2.18151e-14
1.29628e-13
2.59355e-13
1.29662e-13
1.45468e-14
3.63571e-14
7.27995e-15
7.28368e-15
2.18235e-14
7.28562e-15
7.28752e-15
7.28757e-15
1.29437e-13
3.88972e-13
3.89008e-13
2.59307e-13
1.29571e-13
1.29605e-13
1.29606e-13
1.29639e-13
2.59413e-13
5.574e-18
3.71773e-18
1.29675e-13
1.45466e-14
7.27522e-15
1.29644e-13
5.58956e-18
7.27721e-15
7.27725e-15
7.46316e-18
7.46664e-18
7.27925e-15
7.27929e-15
9.34637e-18
2.594e-13
5.18971e-13
3.89255e-13
2.59538e-13
1.29787e-13
7.27023e-15
7.27027e-15
1.29789e-13
1.45445e-14
2.90872e-14
1.45484e-14
2.18227e-14
2.18247e-14
1.45562e-14
2.59353e-13
2.5932e-13
1.29627e-13
2.5939e-13
7.28018e-15
7.28023e-15
9.43906e-18
1.2963e-13
2.59431e-13
2.59466e-13
7.27856e-15
1.45496e-14
1.45535e-14
7.28059e-15
1.13699e-17
7.28257e-15
2.59408e-13
5.19022e-13
3.89286e-13
2.59548e-13
1.9004e-18
2.59619e-13
3.89396e-13
1.29879e-13
1.2988e-13
7.26779e-15
1.02043e-16
3.89509e-13
2.59731e-13
1.70316e-16
2.18116e-14
2.90855e-14
2.18176e-14
1.45458e-14
1.91318e-18
1.9141e-18
7.27588e-15
1.29787e-13
3.83373e-18
7.27409e-15
1.29755e-13
1.91964e-18
1.92057e-18
2.59617e-13
2.59618e-13
7.27241e-15
1.45468e-14
1.45488e-14
1.45509e-14
7.27836e-15
2.18294e-14
2.18295e-14
7.28621e-15
7.28626e-15
1.29592e-13
1.3529e-17
1.45612e-14
7.28838e-15
1.54843e-17
1.29561e-13
7.29046e-15
1.45636e-14
1.74539e-17
2.59369e-13
2.59371e-13
1.35952e-17
1.4564e-14
2.18394e-14
1.29532e-13
1.29498e-13
2.18417e-14
1.29534e-13
3.89159e-13
1.2957e-13
1.2957e-13
1.45648e-14
2.91162e-14
1.45689e-14
1.29468e-13
3.89174e-13
1.29504e-13
1.56601e-17
1.76264e-17
1.56756e-17
3.89254e-13
1.29577e-13
1.17742e-17
1.37434e-17
7.28793e-15
1.37571e-17
1.37639e-17
7.29004e-15
1.37776e-17
1.29582e-13
1.37913e-17
1.29618e-13
3.8935e-13
1.29655e-13
7.89651e-18
9.87557e-18
7.28455e-15
2.59562e-13
3.89433e-13
7.28271e-15
1.45576e-14
1.29731e-13
1.45617e-14
1.45598e-14
7.28889e-15
9.92522e-18
7.29097e-15
7.28705e-15
1.29594e-13
7.28913e-15
1.39304e-17
1.39374e-17
2.18459e-14
3.64008e-14
1.45748e-14
7.30139e-15
1.29456e-13
2.59305e-13
2.19793e-17
1.29493e-13
2.5938e-13
1.2953e-13
1.29566e-13
2.59456e-13
1.60338e-17
1.40367e-17
1.29605e-13
1.4051e-17
2.59534e-13
5.19323e-13
3.89503e-13
6.03419e-18
1.29824e-13
6.04037e-18
2.18368e-14
7.28435e-15
2.59654e-13
2.59655e-13
4.03725e-18
1.29829e-13
1.2983e-13
2.02174e-18
1.29867e-13
1.29868e-13
1.29905e-13
1.29906e-13
7.27675e-15
7.27679e-15
0
1.29909e-13
2.59819e-13
2.59857e-13
7.25763e-17
1.08921e-16
7.27505e-15
7.27306e-15
3.63636e-17
2.59902e-13
5.19699e-13
1.45681e-16
7.26917e-15
1.45833e-16
2.18302e-14
1.45508e-14
1.29957e-13
1.29994e-13
7.27555e-15
7.27354e-15
1.2996e-13
7.32222e-17
1.45555e-14
1.45556e-14
0
1.45599e-14
0
2.59784e-13
1.45602e-14
1.26258e-26
5.19651e-13
1.1266e-25
7.36471e-17
3.898e-13
1.30008e-13
2.59981e-13
1.30046e-13
1.30121e-13
1.30085e-13
2.21761e-16
2.60063e-13
7.2682e-15
2.91082e-14
7.27035e-15
1.45553e-14
2.18341e-14
1.45596e-14
1.45597e-14
1.29908e-13
1.29909e-13
7.28103e-15
5.63726e-26
2.59859e-13
1.29949e-13
3.72569e-17
1.29988e-13
7.27921e-15
1.45585e-14
0
2.59907e-13
1.29954e-13
1.3003e-13
1.29993e-13
1.45569e-14
7.49153e-17
1.29996e-13
1.45593e-14
1.45594e-14
0
0
1.29962e-13
1.29963e-13
1.30002e-13
3.76404e-17
7.27787e-15
2.18443e-14
7.28006e-15
2.5986e-13
0
0
2.18471e-14
2.18472e-14
1.29858e-13
1.29859e-13
7.28677e-15
4.24572e-18
1.29861e-13
4.25038e-18
1.29901e-13
7.28701e-15
7.28492e-15
2.59844e-13
3.89863e-13
1.29942e-13
7.28084e-15
0
1.29983e-13
7.28311e-15
2.18473e-14
7.28533e-15
7.28752e-15
1.45709e-14
6.42844e-18
1.29835e-13
7.28985e-15
2.59865e-13
5.1981e-13
2.14876e-18
9.47483e-27
2.15115e-18
1.45674e-14
1.45696e-14
7.28808e-15
1.29881e-13
2.18581e-14
1.45721e-14
2.59766e-13
7.29264e-15
2.18608e-14
7.2949e-15
1.51508e-17
7.29717e-15
1.29733e-13
1.51763e-17
1.45816e-14
1.51934e-17
2.59703e-13
2.59744e-13
1.30449e-17
7.29541e-15
7.29764e-15
1.3067e-17
7.29992e-15
1.30818e-17
1.29702e-13
1.30966e-17
1.29742e-13
7.29801e-15
1.4583e-14
1.53141e-17
1.75118e-17
1.45855e-14
7.30265e-15
1.45901e-14
2.18754e-14
2.41474e-17
1.29552e-13
1.29592e-13
2.59617e-13
1.29633e-13
2.18763e-14
1.45909e-14
7.31202e-15
2.18811e-14
2.86852e-17
3.89539e-13
1.29518e-13
2.4314e-17
2.59591e-13
7.31023e-15
2.188e-14
1.2956e-13
3.89593e-13
2.59638e-13
1.29641e-13
2.5972e-13
2.59721e-13
1.29762e-13
1.55712e-17
1.33545e-17
1.55893e-17
7.29981e-15
7.30209e-15
7.30214e-15
1.78578e-17
1.78682e-17
7.30454e-15
1.78891e-17
7.30689e-15
1.45915e-14
2.59701e-13
2.24137e-17
7.30488e-15
1.29652e-13
1.45943e-14
2.02197e-17
3.89725e-13
2.59751e-13
2.59793e-13
7.30302e-15
1.45881e-14
2.59797e-13
1.29738e-13
1.45884e-14
1.45908e-14
7.30562e-15
2.03514e-17
1.29701e-13
5.19897e-13
5.1994e-13
7.2991e-15
7.29688e-15
1.45893e-14
2.18751e-14
7.30613e-15
2.91702e-14
1.45966e-14
1.29585e-13
7.31319e-15
1.46014e-14
1.29587e-13
2.59622e-13
2.51121e-17
2.59707e-13
2.59708e-13
1.29712e-13
2.05957e-17
1.29754e-13
1.29714e-13
1.45933e-14
7.30704e-15
1.29715e-13
2.06703e-17
1.83847e-17
2.06953e-17
1.84069e-17
2.59807e-13
2.59849e-13
1.29802e-13
7.30295e-15
1.38471e-17
1.29804e-13
3.90032e-13
5.20129e-13
1.29971e-13
2.60109e-13
3.90207e-13
3.90292e-13
5.20434e-13
5.20521e-13
7.27801e-15
7.27341e-15
5.20572e-13
2.49103e-16
1.4561e-14
1.30354e-13
3.90564e-13
1.30397e-13
1.30481e-13
1.30441e-13
7.26673e-15
3.755e-16
3.75732e-16
7.26917e-15
7.2692e-15
7.27158e-15
1.4562e-14
2.93142e-16
7.27638e-15
1.45646e-14
2.09778e-16
2.09909e-16
7.27889e-15
1.45696e-14
7.28132e-15
2.60368e-13
1.26339e-16
2.91518e-14
1.45748e-14
7.28862e-15
4.22184e-17
3.90378e-13
4.22715e-17
7.28407e-15
7.28885e-15
8.47025e-17
2.6026e-13
8.48093e-17
8.48628e-17
8.49164e-17
1.30219e-13
1.30219e-13
7.28445e-15
1.45761e-14
8.51855e-17
1.3018e-13
2.60363e-13
8.53478e-17
1.70804e-16
1.30227e-13
1.71022e-16
1.30271e-13
2.60459e-13
3.90605e-13
2.57188e-16
7.2754e-15
7.27784e-15
2.57683e-16
1.30364e-13
7.27796e-15
1.30409e-13
2.60518e-13
3.01596e-16
7.2757e-15
1.30456e-13
3.90724e-13
1.30501e-13
1.45638e-14
1.45639e-14
7.27592e-15
7.27595e-15
1.3042e-13
1.30421e-13
3.03748e-16
7.2761e-15
1.45693e-14
1.45718e-14
1.45744e-14
7.28357e-15
7.28605e-15
1.30772e-16
1.30256e-13
1.303e-13
1.30301e-13
1.30346e-13
2.60519e-13
2.18811e-16
7.27904e-15
7.28153e-15
2.18693e-14
7.28407e-15
1.30265e-13
7.28662e-15
7.28666e-15
8.79868e-17
2.60449e-13
5.20814e-13
1.30359e-13
2.18681e-14
7.28198e-15
2.60503e-13
7.28453e-15
2.18711e-14
7.2871e-15
7.28962e-15
8.86315e-17
1.30235e-13
8.87499e-17
7.28981e-15
1.45847e-14
4.44641e-17
2.60389e-13
2.18824e-14
1.45851e-14
2.60305e-13
0
7.29517e-15
0
1.30156e-13
3.90605e-13
3.90607e-13
1.30338e-13
1.30339e-13
7.28546e-15
1.45811e-14
1.34747e-16
8.98926e-17
7.28815e-15
9.00149e-17
1.45866e-14
2.18825e-14
7.29591e-15
7.29849e-15
7.29854e-15
1.30124e-13
1.30125e-13
7.29869e-15
7.29874e-15
5.07819e-18
7.30139e-15
1.45978e-14
1.46004e-14
2.18995e-14
7.30924e-15
1.78472e-17
1.46085e-14
7.31452e-15
2.04391e-17
1.29862e-13
7.31727e-15
1.79214e-17
1.29818e-13
1.2991e-13
1.29865e-13
7.31245e-15
1.46122e-14
2.19094e-14
7.32035e-15
2.57448e-17
1.29777e-13
2.60015e-13
2.3219e-17
1.46155e-14
2.32516e-17
1.2978e-13
1.46185e-14
2.33006e-17
1.29735e-13
1.29828e-13
1.29783e-13
1.29876e-13
2.33829e-17
1.46141e-14
2.3416e-17
7.32148e-15
7.32155e-15
2.60039e-13
1.29787e-13
1.29881e-13
6.50854e-13
5.20696e-13
7.30887e-15
7.30631e-15
5.208e-13
5.2085e-13
3.90734e-13
5.21044e-13
9.37999e-17
1.87734e-16
7.29354e-15
1.45872e-14
7.29627e-15
2.18916e-14
1.4598e-14
2.64111e-18
5.28603e-18
2.64493e-18
2.60448e-13
7.30191e-15
1.45986e-14
5.3052e-18
5.30905e-18
5.31291e-18
1.30182e-13
7.30489e-15
1.46019e-14
3.90695e-13
1.30137e-13
7.29977e-15
1.30187e-13
2.672e-18
1.46025e-14
7.30265e-15
3.90713e-13
2.60477e-13
1.46003e-14
1.46004e-14
5.37156e-18
7.30566e-15
1.4606e-14
7.30846e-15
1.30101e-13
1.30101e-13
8.09316e-18
1.30151e-13
1.30152e-13
7.3061e-15
1.46069e-14
8.12329e-18
1.08391e-17
8.13541e-18
2.6041e-13
2.6046e-13
1.30207e-13
1.30256e-13
3.90869e-13
2.60613e-13
9.73053e-17
1.30406e-13
9.74518e-17
1.46288e-16
9.75988e-17
1.45948e-14
9.77462e-17
7.29888e-15
1.45979e-14
1.30316e-13
1.30317e-13
1.46009e-14
2.92048e-14
1.46066e-14
2.60494e-13
5.21138e-13
2.75928e-18
2.19037e-14
7.30495e-15
5.53123e-18
2.60553e-13
1.30228e-13
1.46048e-14
7.30523e-15
2.60561e-13
1.30232e-13
7.30261e-15
1.30283e-13
1.30284e-13
0
0
1.30336e-13
3.91012e-13
5.21403e-13
1.49799e-16
7.28908e-15
2.60832e-13
1.30542e-13
1.30593e-13
1.30594e-13
3.01001e-16
1.30647e-13
1.30648e-13
7.28378e-15
1.30701e-13
5.217e-13
1.30754e-13
2.61207e-13
2.61159e-13
6.06272e-16
2.61265e-13
1.30962e-13
1.45711e-14
6.58874e-16
1.30916e-13
7.26716e-15
1.3097e-13
3.91693e-13
2.61385e-13
1.31127e-13
7.6448e-16
7.25873e-15
7.65702e-16
1.31133e-13
7.26164e-15
2.91728e-14
7.26455e-15
1.45751e-14
2.9182e-14
2.91908e-14
7.27903e-15
2.61057e-13
1.30787e-13
1.30788e-13
7.27916e-15
7.27919e-15
2.61171e-13
2.61173e-13
2.61279e-13
5.17513e-16
7.27065e-15
5.18356e-16
5.70657e-16
3.91676e-13
5.22118e-13
1.31064e-13
7.26205e-15
1.45708e-14
7.26501e-15
2.61409e-13
1.4574e-14
2.18772e-14
7.27388e-15
2.18863e-14
2.18893e-14
1.30817e-13
1.30766e-13
4.72698e-16
1.30821e-13
1.45865e-14
2.18931e-14
1.45925e-14
1.45956e-14
7.29193e-15
1.30617e-13
2.61025e-13
1.30672e-13
3.1777e-16
1.30728e-13
3.18304e-16
1.45934e-14
1.30732e-13
2.61093e-13
3.91617e-13
2.61204e-13
1.3095e-13
3.91733e-13
2.61425e-13
7.27159e-15
2.91914e-14
1.45823e-14
4.82324e-16
7.2807e-15
1.45885e-14
1.30855e-13
5.22082e-13
1.30912e-13
7.27483e-15
5.3913e-16
7.2779e-15
1.45861e-14
4.86469e-16
7.28405e-15
1.45894e-14
7.28716e-15
1.45957e-14
3.25715e-16
3.91586e-13
3.91644e-13
4.35417e-16
1.459e-14
1.45932e-14
1.30825e-13
3.9166e-13
6.52663e-13
6.52723e-13
2.61606e-13
2.61664e-13
7.26309e-15
2.18785e-14
1.45755e-14
7.26929e-15
1.31114e-13
2.61569e-13
5.22537e-13
3.92141e-13
9.39153e-16
1.45667e-14
2.91863e-14
1.45731e-14
7.20729e-16
7.2695e-15
7.26952e-15
1.31131e-13
6.67664e-16
7.26958e-15
7.27272e-15
1.4583e-14
1.31083e-13
7.27905e-15
1.45832e-14
5.03902e-16
5.60396e-16
1.45929e-14
1.45898e-14
2.61346e-13
4.4994e-16
7.28243e-15
7.28562e-15
1.45966e-14
7.28885e-15
1.46031e-14
3.39301e-16
3.91679e-13
2.61311e-13
3.96938e-16
7.28589e-15
7.28911e-15
3.91866e-13
2.61322e-13
7.27964e-15
7.28606e-15
2.92179e-14
1.46011e-14
1.30781e-13
1.30783e-13
1.30841e-13
3.44019e-16
2.19135e-14
2.9229e-14
7.29924e-15
1.46179e-14
2.19271e-14
1.46246e-14
1.46247e-14
6.47338e-18
7.31895e-15
1.46316e-14
2.19475e-14
1.30279e-13
2.60676e-13
7.32253e-15
1.30324e-17
1.30282e-13
1.30571e-17
7.3228e-15
1.46392e-14
7.3262e-15
3.9121e-13
1.30228e-13
9.84892e-18
1.31445e-17
9.86778e-18
1.31697e-17
1.46369e-14
7.32677e-15
1.65096e-17
1.65255e-17
1.65414e-17
7.33037e-15
1.30237e-13
2.60712e-13
1.30298e-13
1.32973e-17
1.46382e-14
1.46416e-14
7.33089e-15
2.00238e-17
2.19631e-14
2.92776e-14
3.0124e-17
1.29946e-13
1.30006e-13
3.91099e-13
2.60615e-13
2.01816e-17
1.30189e-13
2.6074e-13
1.3025e-13
1.35077e-17
2.60866e-13
1.35345e-17
7.32194e-15
1.35615e-17
7.32546e-15
1.46443e-14
7.329e-15
1.30196e-13
2.6082e-13
3.91385e-13
2.60946e-13
1.30443e-13
1.30505e-13
3.42453e-18
7.31587e-15
3.43146e-18
3.43494e-18
3.43842e-18
7.31956e-15
7.31962e-15
1.46394e-14
2.92721e-14
2.19629e-14
2.197e-14
2.92901e-14
2.19808e-14
7.35477e-15
7.35834e-15
7.35844e-15
1.29777e-13
3.90948e-13
3.91013e-13
1.29965e-13
1.30027e-13
2.60618e-13
3.91273e-13
1.30154e-13
7.33481e-15
7.3384e-15
1.30219e-13
1.30157e-13
2.19701e-14
7.33873e-15
7.34588e-15
2.19778e-14
7.3496e-15
2.60573e-13
1.29971e-13
2.8405e-17
1.30035e-13
7.34651e-15
2.84955e-17
2.60646e-13
2.85562e-17
2.50133e-17
2.86172e-17
2.50668e-17
1.46656e-14
2.51206e-17
1.29976e-13
1.46625e-14
3.24022e-17
3.24372e-17
2.60663e-13
2.60665e-13
1.30172e-13
2.60797e-13
2.60864e-13
2.6093e-13
1.30369e-13
7.33019e-15
1.09185e-17
1.4574e-17
1.30437e-13
5.22274e-13
2.61139e-13
1.30636e-13
1.30637e-13
2.61342e-13
6.53262e-13
3.92118e-13
1.46178e-14
2.9258e-14
1.46254e-14
1.46329e-14
7.31282e-15
5.22588e-13
3.92011e-13
2.19464e-14
2.19465e-14
6.63369e-17
1.30719e-13
3.92028e-13
2.61443e-13
2.66546e-16
2.66847e-16
7.30594e-15
7.30598e-15
1.30861e-13
2.01046e-16
1.46273e-14
1.46312e-14
2.19563e-14
7.31758e-15
1.306e-13
0
0
0
7.32167e-15
1.46435e-14
1.46474e-14
7.32947e-15
3.91825e-13
3.91828e-13
7.32205e-15
7.32211e-15
3.82923e-18
7.32608e-15
7.32614e-15
7.33006e-15
2.1975e-14
2.19791e-14
2.1987e-14
7.34579e-15
3.0923e-17
7.34985e-15
1.30139e-13
3.10331e-17
2.71863e-17
1.30141e-13
7.35033e-15
2.72837e-17
1.30142e-13
2.60913e-13
3.91616e-13
2.61056e-13
1.56844e-17
7.33531e-15
1.30426e-13
1.57413e-17
1.46593e-14
1.57795e-17
1.30359e-13
1.5818e-17
1.30431e-13
2.61146e-13
3.91934e-13
2.61292e-13
1.46485e-14
2.1973e-14
1.46567e-14
2.19853e-14
1.59935e-17
5.22467e-13
2.61164e-13
7.33274e-15
8.0365e-18
7.33692e-15
1.46579e-14
1.30443e-13
1.30444e-13
1.21302e-17
7.33732e-15
1.46627e-14
1.30447e-13
2.61113e-13
1.46631e-14
1.22223e-17
1.30378e-13
1.46635e-14
7.34207e-15
2.04742e-17
1.30381e-13
1.30381e-13
1.64423e-17
1.64633e-17
7.3426e-15
7.34269e-15
2.61138e-13
3.91895e-13
7.33881e-15
7.33475e-15
1.66127e-17
1.30537e-13
3.91985e-13
3.92137e-13
1.30689e-13
1.30839e-13
2.61531e-13
1.49608e-16
7.31867e-15
1.46459e-14
7.32299e-15
0
7.32733e-15
2.19822e-14
2.19866e-14
7.34025e-15
1.30475e-13
1.6989e-17
1.30553e-13
3.9204e-13
3.92196e-13
1.30708e-13
2.19798e-14
1.46562e-14
1.30635e-13
6.53791e-13
3.92294e-13
7.31545e-15
7.31981e-15
1.30948e-13
3.92462e-13
2.61824e-13
5.23499e-13
2.61985e-13
1.46229e-14
2.19563e-14
1.46318e-14
3.11572e-16
1.31117e-13
3.12438e-16
7.30735e-15
1.31122e-13
3.13747e-16
1.31204e-13
5.23564e-13
1.31286e-13
7.29433e-15
1.31369e-13
1.31371e-13
7.29439e-15
2.62275e-13
6.54662e-13
7.95513e-16
7.27662e-15
7.28555e-15
1.46114e-14
1.31548e-13
1.3155e-13
1.46161e-14
8.03535e-16
2.62309e-13
8.05861e-16
7.2856e-15
1.46165e-14
1.46211e-14
7.2947e-15
5.68222e-16
1.46305e-14
1.46306e-14
4.07662e-16
4.08263e-16
4.08865e-16
1.31257e-13
4.10076e-16
7.30407e-15
4.11296e-16
4.11909e-16
2.62121e-13
1.31269e-13
1.46316e-14
7.30426e-15
7.30894e-15
4.15631e-16
3.33007e-16
7.30905e-15
1.46463e-14
7.31381e-15
2.61902e-13
7.3186e-15
2.19795e-14
7.32342e-15
7.3282e-15
7.32827e-15
1.30875e-13
1.30877e-13
7.32847e-15
1.46618e-14
1.27157e-26
2.61679e-13
2.61766e-13
1.3097e-13
1.7118e-16
7.32413e-15
1.3106e-13
2.61866e-13
7.31948e-15
1.31151e-13
2.61961e-13
3.46163e-16
3.46714e-16
7.31487e-15
3.47823e-16
1.46543e-14
1.46496e-14
2.61894e-13
1.75032e-16
1.46548e-14
7.32502e-15
1.30997e-13
8.80852e-17
1.76458e-16
2.61914e-13
1.31091e-13
1.31181e-13
1.31183e-13
1.31274e-13
1.31276e-13
4.46246e-16
7.31065e-15
1.31371e-13
5.24058e-13
1.31465e-13
7.19958e-16
6.31019e-16
1.46318e-14
6.33144e-16
7.30585e-15
2.19736e-14
1.46475e-14
7.31613e-15
7.32129e-15
1.31214e-13
1.31124e-13
7.3163e-15
7.32149e-15
7.32154e-15
2.62078e-13
1.31133e-13
1.46538e-14
7.32175e-15
1.85605e-16
1.46645e-14
2.93398e-14
1.90867e-26
3.92688e-13
1.3096e-13
7.33262e-15
1.31056e-13
2.61928e-13
1.31154e-13
1.31156e-13
2.83862e-16
7.32241e-15
2.8488e-16
1.31163e-13
2.62233e-13
2.86423e-16
3.66669e-14
2.93392e-14
7.33891e-15
1.30885e-13
1.46835e-14
2.93566e-14
7.35548e-15
7.36102e-15
1.306e-13
7.36671e-15
7.35593e-15
2.61399e-13
1.30603e-13
3.92594e-13
5.23693e-13
5.23895e-13
3.93098e-13
7.32353e-15
1.46582e-14
1.98151e-16
1.98527e-16
1.98906e-16
7.32936e-15
1.99667e-16
1.31111e-13
1.31213e-13
1.31215e-13
3.93349e-13
3.02401e-16
1.46483e-14
7.32418e-15
2.20011e-14
7.32997e-15
7.33574e-15
7.33581e-15
2.62055e-13
5.24117e-13
2.62267e-13
1.31443e-13
2.62479e-13
1.31551e-13
1.31657e-13
6.21754e-16
7.26841e-16
6.24266e-16
7.30156e-15
6.26801e-16
7.30743e-15
1.46502e-14
2.19989e-14
1.46622e-14
7.33114e-15