/*--------------------------------*- C++ -*----------------------------------*\
| =========                 |                                                 |
| \\      /  F ield         | OpenFOAM: The Open Source CFD Toolbox           |
|  \\    /   O peration     | Version:  2.4.0                                 |
|   \\  /    A nd           | Web:      www.OpenFOAM.org                      |
|    \\/     M anipulation  |                                                 |
\*---------------------------------------------------------------------------*/
FoamFile
{
    version     2.0;
    format      ascii;
    class       volScalarField;
    location    "1e-06";
    object      rho;
}
// * * * * * * * * * * * * * * * * * * * * * * * * * * * * * * * * * * * * * //

dimensions      [1 -3 0 0 0 0 0];

internalField   nonuniform List<scalar> 
10000
(
415.074
415.041
415.008
414.974
414.941
414.907
414.874
414.841
414.807
414.774
414.74
414.707
414.674
414.64
414.607
414.573
414.54
414.506
414.473
414.439
414.406
414.372
414.339
414.305
414.272
414.238
414.205
414.171
414.137
414.104
414.07
414.037
414.003
413.97
413.936
413.902
413.869
413.835
413.802
413.768
413.734
413.701
413.667
413.633
413.6
413.566
413.532
413.499
413.465
413.431
413.397
413.364
413.33
413.296
413.263
413.229
413.195
413.161
413.128
413.094
413.06
413.026
412.992
412.959
412.925
412.891
412.857
412.823
412.79
412.756
412.722
412.688
412.654
412.62
412.586
412.552
412.519
412.485
412.451
412.417
412.383
412.349
412.315
412.281
412.247
412.213
412.179
412.145
412.111
412.077
412.043
412.009
411.975
411.941
411.907
411.873
411.839
411.805
411.771
411.737
411.703
411.669
411.635
411.601
411.567
411.533
411.499
411.464
411.43
411.396
411.362
411.328
411.294
411.26
411.225
411.191
411.157
411.123
411.089
411.054
411.02
410.986
410.952
410.918
410.883
410.849
410.815
410.781
410.746
410.712
410.678
410.643
410.609
410.575
410.541
410.506
410.472
410.438
410.403
410.369
410.335
410.3
410.266
410.231
410.197
410.163
410.128
410.094
410.059
410.025
409.991
409.956
409.922
409.887
409.853
409.818
409.784
409.749
409.715
409.68
409.646
409.611
409.577
409.542
409.508
409.473
409.439
409.404
409.37
409.335
409.301
409.266
409.231
409.197
409.162
409.128
409.093
409.058
409.024
408.989
408.954
408.92
408.885
408.85
408.816
408.781
408.746
408.712
408.677
408.642
408.607
408.573
408.538
408.503
408.468
408.434
408.399
408.364
408.329
408.295
408.26
408.225
408.19
408.155
408.12
408.086
408.051
408.016
407.981
407.946
407.911
407.876
407.841
407.807
407.772
407.737
407.702
407.667
407.632
407.597
407.562
407.527
407.492
407.457
407.422
407.387
407.352
407.317
407.282
407.247
407.212
407.177
407.142
407.107
407.072
407.037
407.002
406.967
406.932
406.896
406.861
406.826
406.791
406.756
406.721
406.686
406.65
406.615
406.58
406.545
406.51
406.475
406.439
406.404
406.369
406.334
406.298
406.263
406.228
406.193
406.157
406.122
406.087
406.052
406.016
405.981
405.946
405.91
405.875
405.84
405.804
405.769
405.734
405.698
405.663
405.627
405.592
405.557
405.521
405.486
405.45
405.415
405.38
405.344
405.309
405.273
405.238
405.202
405.167
405.131
405.096
405.06
405.025
404.989
404.954
404.918
404.883
404.847
404.811
404.776
404.74
404.705
404.669
404.633
404.598
404.562
404.527
404.491
404.455
404.42
404.384
404.348
404.313
404.277
404.241
404.205
404.17
404.134
404.098
404.063
404.027
403.991
403.955
403.919
403.884
403.848
403.812
403.776
403.74
403.705
403.669
403.633
403.597
403.561
403.525
403.49
403.454
403.418
403.382
403.346
403.31
403.274
403.238
403.202
403.166
403.13
403.094
403.058
403.022
402.986
402.95
402.914
402.878
402.842
402.806
402.77
402.734
402.698
402.662
402.626
402.59
402.554
402.518
402.482
402.446
402.409
402.373
402.337
402.301
402.265
402.229
402.193
402.156
402.12
402.084
402.048
402.012
401.975
401.939
401.903
401.867
401.83
401.794
401.758
401.722
401.685
401.649
401.613
401.576
401.54
401.504
401.467
401.431
401.395
401.358
401.322
401.285
401.249
401.213
401.176
401.14
401.103
401.067
401.03
400.994
400.958
400.921
400.885
400.848
400.812
400.775
400.739
400.702
400.666
400.629
400.592
400.556
400.519
400.483
400.446
400.41
400.373
400.336
400.3
400.263
400.226
400.19
400.153
400.117
400.08
400.043
400.006
399.97
399.933
399.896
399.86
399.823
399.786
399.749
399.713
399.676
399.639
399.602
399.565
399.529
399.492
399.455
399.418
399.381
399.345
399.308
399.271
399.234
399.197
399.16
399.123
399.086
399.049
399.012
398.976
398.939
398.902
398.865
398.828
398.791
398.754
398.717
398.68
398.643
398.606
398.569
398.532
398.495
398.457
398.42
398.383
398.346
398.309
398.272
398.235
398.198
398.161
398.123
398.086
398.049
398.012
397.975
397.938
397.9
397.863
397.826
397.789
397.752
397.714
397.677
397.64
397.602
397.565
397.528
397.491
397.453
397.416
397.379
397.341
397.304
397.267
397.229
397.192
397.155
397.117
397.08
397.042
397.005
396.967
396.93
396.893
396.855
396.818
396.78
396.743
396.705
396.668
396.63
396.593
396.555
396.518
396.48
396.442
396.405
396.367
396.33
396.292
396.255
396.217
396.179
396.142
396.104
396.066
396.029
395.991
395.953
395.916
395.878
395.84
395.802
395.765
395.727
395.689
395.652
395.614
395.576
395.538
395.5
395.463
395.425
395.387
395.349
395.311
395.273
395.236
395.198
395.16
395.122
395.084
395.046
395.008
394.97
394.932
394.894
394.856
394.818
394.78
394.742
394.704
394.666
394.628
394.59
394.552
394.514
394.476
394.438
394.4
394.362
394.324
394.286
394.248
394.21
394.172
394.133
394.095
394.057
394.019
393.981
393.943
393.904
393.866
393.828
393.79
393.751
393.713
393.675
393.637
393.598
393.56
393.522
393.483
393.445
393.407
393.368
393.33
393.292
393.253
393.215
393.177
393.138
393.1
393.061
393.023
392.985
392.946
392.908
392.869
392.831
392.792
392.754
392.715
392.677
392.638
392.6
392.561
392.523
392.484
392.445
392.407
392.368
392.33
392.291
392.252
392.214
392.175
392.136
392.098
392.059
392.02
391.982
391.943
391.904
391.865
391.827
391.788
391.749
391.71
391.672
391.633
391.594
391.555
391.516
391.478
391.439
391.4
391.361
391.322
391.283
391.244
391.206
391.167
391.128
391.089
391.05
391.011
390.972
390.933
390.894
390.855
390.816
390.777
390.738
390.699
390.66
390.621
390.582
390.543
390.503
390.464
390.425
390.386
390.347
390.308
390.269
390.23
390.19
390.151
390.112
390.073
390.034
389.994
389.955
389.916
389.877
389.837
389.798
389.759
389.719
389.68
389.641
389.602
389.562
389.523
389.483
389.444
389.405
389.365
389.326
389.286
389.247
389.208
389.168
389.129
389.089
389.05
389.01
388.971
388.931
388.892
388.852
388.813
388.773
388.734
388.694
388.654
388.615
388.575
388.536
388.496
388.456
388.417
388.377
388.337
388.298
388.258
388.218
388.178
388.139
388.099
388.059
388.019
387.98
387.94
387.9
387.86
387.821
387.781
387.741
387.701
387.661
387.621
387.581
387.542
387.502
387.462
387.422
387.382
387.342
387.302
387.262
387.222
387.182
387.142
387.102
387.062
387.022
386.982
386.942
386.902
386.862
386.822
386.781
386.741
386.701
386.661
386.621
386.581
386.541
386.5
386.46
386.42
386.38
386.34
386.299
386.259
386.219
386.179
386.138
386.098
386.058
386.017
385.977
385.937
385.896
385.856
385.816
385.775
385.735
385.694
385.654
385.614
385.573
385.533
385.492
385.452
385.411
385.371
385.33
385.29
385.249
385.209
385.168
385.127
385.087
385.046
385.006
384.965
384.924
384.884
384.843
384.802
384.762
384.721
384.68
384.64
384.599
384.558
384.517
384.477
384.436
384.395
384.354
384.314
384.273
384.232
384.191
384.15
384.109
384.069
384.028
383.987
383.946
383.905
383.864
383.823
383.782
383.741
383.7
383.659
383.618
383.577
383.536
383.495
383.454
383.413
383.372
383.331
383.29
383.249
383.207
383.166
383.125
383.084
383.043
383.002
382.96
382.919
382.878
382.837
382.796
382.754
382.713
382.672
382.631
382.589
382.548
382.507
382.465
382.424
382.383
382.341
382.3
382.258
382.217
382.176
382.134
382.093
382.051
382.01
381.968
381.927
381.885
381.844
381.802
381.761
381.719
381.677
381.636
381.594
381.553
381.511
381.469
381.428
381.386
381.344
381.303
381.261
381.219
381.178
381.136
381.094
381.052
381.011
380.969
380.927
380.885
380.843
380.802
380.76
380.718
380.676
380.634
380.592
380.55
380.508
380.466
380.425
380.383
380.341
380.299
380.257
380.215
380.173
380.131
380.089
380.046
380.004
379.962
379.92
379.878
379.836
379.794
379.752
379.71
379.667
379.625
379.583
379.541
379.499
379.456
379.414
379.372
379.329
379.287
379.245
379.203
379.16
379.118
379.076
379.033
378.991
378.948
378.906
378.864
378.821
378.779
378.736
378.694
378.651
378.609
378.566
378.524
378.481
378.439
378.396
378.353
378.311
378.268
378.226
378.183
378.14
378.098
378.055
378.012
377.97
377.927
377.884
377.842
377.799
377.756
377.713
377.67
377.628
377.585
377.542
377.499
377.456
377.413
377.371
377.328
377.285
377.242
377.199
377.156
377.113
377.07
377.027
376.984
376.941
376.898
376.855
376.812
376.769
376.726
376.683
376.639
376.596
376.553
376.51
376.467
376.424
376.38
376.337
376.294
376.251
376.208
376.164
376.121
376.078
376.034
375.991
375.948
375.904
375.861
375.818
375.774
375.731
375.687
375.644
375.601
375.557
375.514
375.47
375.427
375.383
375.34
375.296
375.252
375.209
375.165
375.122
375.078
375.034
374.991
374.947
374.904
374.86
374.816
374.772
374.729
374.685
374.641
374.597
374.554
374.51
374.466
374.422
374.378
374.335
374.291
374.247
374.203
374.159
374.115
374.071
374.027
373.983
373.939
373.895
373.851
373.807
373.763
373.719
373.675
373.631
373.587
373.543
373.499
373.454
373.41
373.366
373.322
373.278
373.234
373.189
373.145
373.101
373.057
373.012
372.968
372.924
372.879
372.835
372.791
372.746
372.702
372.657
372.613
372.569
372.524
372.48
372.435
372.391
372.346
372.302
372.257
372.212
372.168
372.123
372.079
372.034
371.989
371.945
371.9
371.856
371.811
371.766
371.721
371.677
371.632
371.587
371.542
371.498
371.453
371.408
371.363
371.318
371.273
371.228
371.184
371.139
371.094
371.049
371.004
370.959
370.914
370.869
370.824
370.779
370.734
370.689
370.644
370.598
370.553
370.508
370.463
370.418
370.373
370.328
370.282
370.237
370.192
370.147
370.101
370.056
370.011
369.965
369.92
369.875
369.829
369.784
369.739
369.693
369.648
369.602
369.557
369.511
369.466
369.42
369.375
369.329
369.284
369.238
369.193
369.147
369.101
369.056
369.01
368.964
368.919
368.873
368.827
368.782
368.736
368.69
368.644
368.598
368.553
368.507
368.461
368.415
368.369
368.323
368.277
368.232
368.186
368.14
368.094
368.048
368.002
367.956
367.91
367.864
367.817
367.771
367.725
367.679
367.633
367.587
367.541
367.495
367.448
367.402
367.356
367.31
367.263
367.217
367.171
367.124
367.078
367.032
366.985
366.939
366.893
366.846
366.8
366.753
366.707
366.66
366.614
366.567
366.521
366.474
366.428
366.381
366.334
366.288
366.241
366.195
366.148
366.101
366.054
366.008
365.961
365.914
365.867
365.821
365.774
365.727
365.68
365.633
365.586
365.54
365.493
365.446
365.399
365.352
365.305
365.258
365.211
365.164
365.117
365.07
365.023
364.976
364.928
364.881
364.834
364.787
364.74
364.693
364.645
364.598
364.551
364.504
364.456
364.409
364.362
364.314
364.267
364.22
364.172
364.125
364.077
364.03
363.982
363.935
363.887
363.84
363.792
363.745
363.697
363.65
363.602
363.554
363.507
363.459
363.411
363.364
363.316
363.268
363.22
363.173
363.125
363.077
363.029
362.981
362.933
362.886
362.838
362.79
362.742
362.694
362.646
362.598
362.55
362.502
362.454
362.406
362.358
362.31
362.261
362.213
362.165
362.117
362.069
362.021
361.972
361.924
361.876
361.827
361.779
361.731
361.682
361.634
361.586
361.537
361.489
361.44
361.392
361.344
361.295
361.247
361.198
361.149
361.101
361.052
361.004
360.955
360.906
360.858
360.809
360.76
360.712
360.663
360.614
360.565
360.516
360.468
360.419
360.37
360.321
360.272
360.223
360.174
360.125
360.076
360.027
359.978
359.929
359.88
359.831
359.782
359.733
359.684
359.635
359.586
359.536
359.487
359.438
359.389
359.339
359.29
359.241
359.191
359.142
359.093
359.043
358.994
358.945
358.895
358.846
358.796
358.747
358.697
358.648
358.598
358.548
358.499
358.449
358.4
358.35
358.3
358.25
358.201
358.151
358.101
358.051
358.002
357.952
357.902
357.852
357.802
357.752
357.702
357.652
357.602
357.552
357.502
357.452
357.402
357.352
357.302
357.252
357.202
357.152
357.102
357.051
357.001
356.951
356.901
356.85
356.8
356.75
356.699
356.649
356.599
356.548
356.498
356.447
356.397
356.346
356.296
356.245
356.195
356.144
356.094
356.043
355.992
355.942
355.891
355.84
355.79
355.739
355.688
355.637
355.586
355.536
355.485
355.434
355.383
355.332
355.281
355.23
355.179
355.128
355.077
355.026
354.975
354.924
354.873
354.822
354.77
354.719
354.668
354.617
354.566
354.514
354.463
354.412
354.36
354.309
354.258
354.206
354.155
354.103
354.052
354
353.949
353.897
353.846
353.794
353.743
353.691
353.639
353.588
353.536
353.484
353.433
353.381
353.329
353.277
353.225
353.173
353.122
353.07
353.018
352.966
352.914
352.862
352.81
352.758
352.706
352.654
352.602
352.549
352.497
352.445
352.393
352.341
352.288
352.236
352.184
352.132
352.079
352.027
351.975
351.922
351.87
351.817
351.765
351.712
351.66
351.607
351.555
351.502
351.449
351.397
351.344
351.291
351.239
351.186
351.133
351.08
351.028
350.975
350.922
350.869
350.816
350.763
350.71
350.657
350.604
350.551
350.498
350.445
350.392
350.339
350.286
350.233
350.179
350.126
350.073
350.02
349.966
349.913
349.86
349.806
349.753
349.7
349.646
349.593
349.539
349.486
349.432
349.379
349.325
349.271
349.218
349.164
349.11
349.057
349.003
348.949
348.895
348.842
348.788
348.734
348.68
348.626
348.572
348.518
348.464
348.41
348.356
348.302
348.248
348.194
348.14
348.085
348.031
347.977
347.923
347.868
347.814
347.76
347.706
347.651
347.597
347.542
347.488
347.433
347.379
347.324
347.27
347.215
347.161
347.106
347.051
346.997
346.942
346.887
346.832
346.778
346.723
346.668
346.613
346.558
346.503
346.448
346.393
346.338
346.283
346.228
346.173
346.118
346.063
346.008
345.952
345.897
345.842
345.787
345.731
345.676
345.621
345.565
345.51
345.454
345.399
345.343
345.288
345.232
345.177
345.121
345.065
345.01
344.954
344.898
344.843
344.787
344.731
344.675
344.619
344.563
344.508
344.452
344.396
344.34
344.284
344.228
344.171
344.115
344.059
344.003
343.947
343.891
343.834
343.778
343.722
343.665
343.609
343.553
343.496
343.44
343.383
343.327
343.27
343.214
343.157
343.1
343.044
342.987
342.93
342.874
342.817
342.76
342.703
342.646
342.589
342.532
342.476
342.419
342.362
342.304
342.247
342.19
342.133
342.076
342.019
341.962
341.904
341.847
341.79
341.732
341.675
341.618
341.56
341.503
341.445
341.388
341.33
341.273
341.215
341.157
341.1
341.042
340.984
340.926
340.869
340.811
340.753
340.695
340.637
340.579
340.521
340.463
340.405
340.347
340.289
340.231
340.173
340.115
340.056
339.998
339.94
339.881
339.823
339.765
339.706
339.648
339.589
339.531
339.472
339.414
339.355
339.296
339.238
339.179
339.12
339.061
339.003
338.944
338.885
338.826
338.767
338.708
338.649
338.59
338.531
338.472
338.413
338.354
338.294
338.235
338.176
338.117
338.057
337.998
337.939
337.879
337.82
337.76
337.701
337.641
337.582
337.522
337.462
337.403
337.343
337.283
337.223
337.163
337.104
337.044
336.984
336.924
336.864
336.804
336.744
336.684
336.623
336.563
336.503
336.443
336.383
336.322
336.262
336.201
336.141
336.081
336.02
335.96
335.899
335.838
335.778
335.717
335.656
335.596
335.535
335.474
335.413
335.352
335.292
335.231
335.17
335.109
335.048
334.987
334.925
334.864
334.803
334.742
334.681
334.619
334.558
334.497
334.435
334.374
334.312
334.251
334.189
334.128
334.066
334.004
333.943
333.881
333.819
333.757
333.695
333.633
333.571
333.51
333.448
333.385
333.323
333.261
333.199
333.137
333.075
333.012
332.95
332.888
332.825
332.763
332.701
332.638
332.576
332.513
332.45
332.388
332.325
332.262
332.2
332.137
332.074
332.011
331.948
331.885
331.822
331.759
331.696
331.633
331.57
331.507
331.443
331.38
331.317
331.253
331.19
331.127
331.063
331
330.936
330.872
330.809
330.745
330.681
330.618
330.554
330.49
330.426
330.362
330.298
330.234
330.17
330.106
330.042
329.978
329.914
329.849
329.785
329.721
329.656
329.592
329.528
329.463
329.399
329.334
329.269
329.205
329.14
329.075
329.011
328.946
328.881
328.816
328.751
328.686
328.621
328.556
328.491
328.426
328.36
328.295
328.23
328.164
328.099
328.034
327.968
327.903
327.837
327.771
327.706
327.64
327.574
327.509
327.443
327.377
327.311
327.245
327.179
327.113
327.047
326.981
326.915
326.848
326.782
326.716
326.649
326.583
326.517
326.45
326.383
326.317
326.25
326.184
326.117
326.05
325.983
325.916
325.85
325.783
325.716
325.649
325.581
325.514
325.447
325.38
325.313
325.245
325.178
325.11
325.043
324.975
324.908
324.84
324.773
324.705
324.637
324.569
324.501
324.434
324.366
324.298
324.23
324.161
324.093
324.025
323.957
323.889
323.82
323.752
323.683
323.615
323.546
323.478
323.409
323.341
323.272
323.203
323.134
323.065
322.996
322.927
322.858
322.789
322.72
322.651
322.582
322.512
322.443
322.374
322.304
322.235
322.165
322.096
322.026
321.956
321.887
321.817
321.747
321.677
321.607
321.537
321.467
321.397
321.327
321.256
321.186
321.116
321.045
320.975
320.905
320.834
320.763
320.693
320.622
320.551
320.48
320.41
320.339
320.268
320.197
320.126
320.054
319.983
319.912
319.841
319.769
319.698
319.626
319.555
319.483
319.412
319.34
319.268
319.196
319.125
319.053
318.981
318.909
318.837
318.764
318.692
318.62
318.548
318.475
318.403
318.33
318.258
318.185
318.113
318.04
317.967
317.894
317.821
317.748
317.675
317.602
317.529
317.456
317.383
317.309
317.236
317.163
317.089
317.016
316.942
316.868
316.795
316.721
316.647
316.573
316.499
316.425
316.351
316.277
316.202
316.128
316.054
315.979
315.905
315.83
315.756
315.681
315.606
315.532
315.457
315.382
315.307
315.232
315.157
315.082
315.006
314.931
314.856
314.78
314.705
314.629
314.554
314.478
314.402
314.327
314.251
314.175
314.099
314.023
313.947
313.87
313.794
313.718
313.641
313.565
313.488
313.412
313.335
313.258
313.181
313.105
313.028
312.951
312.874
312.796
312.719
312.642
312.565
312.487
312.41
312.332
312.254
312.177
312.099
312.021
311.943
311.865
311.787
311.709
311.631
311.553
311.474
311.396
311.317
311.239
311.16
311.082
311.003
310.924
310.845
310.766
310.687
310.608
310.529
310.449
310.37
310.29
310.211
310.131
310.052
309.972
309.892
309.812
309.732
309.652
309.572
309.492
309.412
309.331
309.251
309.171
309.09
309.009
308.929
308.848
308.767
308.686
308.605
308.524
308.443
308.361
308.28
308.198
308.117
308.035
307.954
307.872
307.79
307.708
307.626
307.544
307.462
307.38
307.297
307.215
307.132
307.05
306.967
306.885
306.802
306.719
306.636
306.553
306.47
306.386
306.303
306.22
306.136
306.053
305.969
305.885
305.801
305.717
305.633
305.549
305.465
305.381
305.296
305.212
305.127
305.043
304.958
304.873
304.788
304.703
304.618
304.533
304.448
304.363
304.277
304.192
304.106
304.02
303.934
303.849
303.763
303.677
303.59
303.504
303.418
303.331
303.245
303.158
303.071
302.985
302.898
302.811
302.723
302.636
302.549
302.462
302.374
302.286
302.199
302.111
302.023
301.935
301.847
301.759
301.671
301.582
301.494
301.405
301.316
301.228
301.139
301.05
300.961
300.871
300.782
300.693
300.603
300.514
300.424
300.334
300.244
300.154
300.064
299.974
299.884
299.793
299.703
299.612
299.521
299.43
299.339
299.248
299.157
299.066
298.974
298.883
298.791
298.699
298.608
298.516
298.423
298.331
298.239
298.147
298.054
297.961
297.869
297.776
297.683
297.59
297.497
297.403
297.31
297.216
297.123
297.029
296.935
296.841
296.747
296.652
296.558
296.463
296.369
296.274
296.179
296.084
295.989
295.894
295.799
295.703
295.608
295.512
295.416
295.32
295.224
295.128
295.031
294.935
294.838
294.742
294.645
294.548
294.451
294.353
294.256
294.158
294.061
293.963
293.865
293.767
293.669
293.571
293.472
293.374
293.275
293.176
293.077
292.978
292.879
292.78
292.68
292.58
292.481
292.381
292.281
292.18
292.08
291.98
291.879
291.778
291.677
291.576
291.475
291.374
291.272
291.171
291.069
290.967
290.865
290.763
290.66
290.558
290.455
290.352
290.249
290.146
290.043
289.939
289.836
289.732
289.628
289.524
289.42
289.316
289.211
289.106
289.002
288.897
288.792
288.686
288.581
288.475
288.369
288.263
288.157
288.051
287.945
287.838
287.731
287.624
287.517
287.41
287.302
287.195
287.087
286.979
286.871
286.763
286.654
286.546
286.437
286.328
286.219
286.109
286
285.89
285.78
285.67
285.56
285.449
285.339
285.228
285.117
285.006
284.894
284.783
284.671
284.559
284.447
284.335
284.222
284.11
283.997
283.884
283.77
283.657
283.543
283.429
283.315
283.201
283.087
282.972
282.857
282.742
282.627
282.512
282.396
282.28
282.164
282.048
281.931
281.814
281.697
281.58
281.463
281.345
281.228
281.11
280.991
280.873
280.754
280.636
280.516
280.397
280.278
280.158
280.038
279.918
279.797
279.676
279.556
279.434
279.313
279.191
279.07
278.947
278.825
278.703
278.58
278.457
278.333
278.21
278.086
277.962
277.838
277.713
277.589
277.463
277.338
277.213
277.087
276.961
276.834
276.708
276.581
276.454
276.327
276.199
276.071
275.943
275.814
275.686
275.557
275.427
275.298
275.168
275.038
274.908
274.777
274.646
274.515
274.383
274.251
274.119
273.987
273.854
273.721
273.588
273.454
273.32
273.186
273.052
272.917
272.782
272.646
272.511
272.375
272.238
272.101
271.964
271.827
271.689
271.551
271.413
271.274
271.135
270.996
270.856
270.716
270.576
270.435
270.294
270.153
270.011
269.869
269.727
269.584
269.441
269.297
269.153
269.009
268.865
268.72
268.574
268.429
268.282
268.136
267.989
267.842
267.694
267.546
267.398
267.249
267.1
266.95
266.8
266.65
266.499
266.347
266.196
266.044
265.891
265.738
265.585
265.431
265.277
265.122
264.967
264.811
264.655
264.499
264.342
264.185
264.027
263.868
263.71
263.55
263.391
263.23
263.07
262.909
262.747
262.585
262.422
262.259
262.095
261.931
261.767
261.601
261.436
261.269
261.103
260.935
260.768
260.599
260.43
260.261
260.091
259.92
259.749
259.577
259.405
259.232
259.059
258.885
258.71
258.535
258.359
258.183
258.006
257.828
257.65
257.471
257.291
257.111
256.93
256.749
256.567
256.384
256.201
256.016
255.832
255.646
255.46
255.273
255.085
254.897
254.708
254.518
254.328
254.137
253.945
253.752
253.558
253.364
253.169
252.973
252.777
252.579
252.381
252.182
251.982
251.782
251.58
251.378
251.175
250.971
250.766
250.56
250.353
250.146
249.937
249.728
249.518
249.307
249.094
248.881
248.667
248.452
248.236
248.019
247.801
247.582
247.362
247.141
246.919
246.695
246.471
246.246
246.019
245.792
245.563
245.333
245.103
244.87
244.637
244.403
244.167
243.93
243.692
243.453
243.213
242.971
242.728
242.484
242.238
241.991
241.743
241.493
241.242
240.99
240.736
240.481
240.225
239.967
239.707
239.446
239.184
238.92
238.655
238.388
238.119
237.849
237.578
237.304
237.03
236.753
236.475
236.195
235.914
235.63
235.345
235.059
234.77
234.48
234.188
233.894
233.598
233.3
233.001
232.699
232.396
232.091
231.784
231.475
231.163
230.85
230.535
230.218
229.899
229.577
229.254
228.928
228.601
228.271
227.939
227.605
227.269
226.93
226.59
226.247
225.902
225.555
225.206
224.854
224.5
224.145
223.786
223.426
223.064
222.699
222.332
221.963
221.592
221.219
220.843
220.466
220.086
219.705
219.321
218.936
218.548
218.159
217.768
217.375
216.98
216.584
216.186
215.787
215.386
214.984
214.58
214.175
213.769
213.362
212.954
212.545
212.135
211.725
211.314
210.903
210.491
210.079
209.666
209.254
208.842
208.43
208.018
207.607
207.196
206.786
206.377
205.968
205.561
205.155
204.75
204.346
203.944
203.543
203.144
202.747
202.351
201.958
201.566
201.177
200.79
200.405
200.022
199.642
199.264
198.889
198.517
198.147
197.779
197.414
197.052
196.693
196.337
195.983
195.633
195.285
194.94
194.598
194.258
193.922
193.589
193.258
192.93
192.606
192.284
191.965
191.649
191.336
191.025
190.718
190.413
190.111
189.811
189.515
189.221
188.93
188.642
188.356
188.073
187.792
187.514
187.239
186.966
186.695
186.427
186.162
185.899
185.638
185.379
185.123
184.869
184.618
184.368
184.121
183.876
183.633
183.393
183.154
182.917
182.683
182.45
182.22
181.991
181.764
181.539
181.317
181.095
180.876
180.659
180.443
180.229
180.017
179.807
179.598
179.391
179.185
178.981
178.779
178.578
178.379
178.181
177.985
177.791
177.597
177.406
177.215
177.026
176.839
176.653
176.468
176.284
176.102
175.922
175.742
175.564
175.387
175.211
175.036
174.863
174.691
174.52
174.35
174.181
174.014
173.847
173.682
173.518
173.355
173.192
173.031
172.871
172.712
172.554
172.397
172.241
172.086
171.932
171.779
171.627
171.476
171.325
171.176
171.027
170.88
170.733
170.587
170.442
170.298
170.154
170.012
169.87
169.729
169.589
169.45
169.311
169.174
169.037
168.9
168.765
168.63
168.496
168.363
168.23
168.098
167.967
167.837
167.707
167.578
167.45
167.322
167.195
167.068
166.942
166.817
166.693
166.569
166.446
166.323
166.201
166.079
165.959
165.838
165.719
165.6
165.481
165.363
165.246
165.129
165.013
164.897
164.782
164.667
164.553
164.439
164.326
164.214
164.102
163.99
163.879
163.769
163.659
163.549
163.44
163.331
163.223
163.116
163.009
162.902
162.796
162.69
162.584
162.48
162.375
162.271
162.168
162.064
161.962
161.859
161.758
161.656
161.555
161.455
161.354
161.254
161.155
161.056
160.957
160.859
160.761
160.664
160.567
160.47
160.374
160.278
160.182
160.087
159.992
159.898
159.804
159.71
159.617
159.524
159.431
159.339
159.247
159.155
159.064
158.973
158.882
158.792
158.702
158.612
158.523
158.434
158.345
158.256
158.168
158.081
157.993
157.906
157.819
157.733
157.646
157.56
157.475
157.389
157.304
157.219
157.135
157.051
156.967
156.883
156.8
156.717
156.634
156.551
156.469
156.387
156.305
156.224
156.143
156.062
155.981
155.901
155.82
155.74
155.661
155.581
155.502
155.423
155.345
155.266
155.188
155.11
155.033
154.955
154.878
154.801
154.724
154.648
154.572
154.495
154.42
154.344
154.269
154.194
154.119
154.044
153.97
153.895
153.821
153.748
153.674
153.601
153.528
153.455
153.382
153.309
153.237
153.165
153.093
153.021
152.95
152.879
152.808
152.737
152.666
152.595
152.525
152.455
152.385
152.315
152.246
152.177
152.108
152.039
151.97
151.901
151.833
151.765
151.697
151.629
151.561
151.494
151.426
151.359
151.292
151.226
151.159
151.093
151.026
150.96
150.894
150.829
150.763
150.698
150.632
150.567
150.503
150.438
150.373
150.309
150.245
150.181
150.117
150.053
149.989
149.926
149.863
149.8
149.737
149.674
149.611
149.549
149.486
149.424
149.362
149.3
149.239
149.177
149.115
149.054
148.993
148.932
148.871
148.811
148.75
148.69
148.629
148.569
148.509
148.449
148.39
148.33
148.271
148.211
148.152
148.093
148.034
147.976
147.917
147.858
147.8
147.742
147.684
147.626
147.568
147.51
147.453
147.395
147.338
147.281
147.224
147.167
147.11
147.053
146.997
146.94
146.884
146.828
146.772
146.716
146.66
146.605
146.549
146.494
146.438
146.383
146.328
146.273
146.218
146.163
146.109
146.054
146
145.946
145.891
145.837
145.783
145.73
145.676
145.622
145.569
145.516
145.462
145.409
145.356
145.303
145.25
145.198
145.145
145.092
145.04
144.988
144.936
144.884
144.832
144.78
144.728
144.676
144.625
144.573
144.522
144.471
144.42
144.368
144.318
144.267
144.216
144.165
144.115
144.064
144.014
143.964
143.914
143.863
143.814
143.764
143.714
143.664
143.615
143.565
143.516
143.466
143.417
143.368
143.319
143.27
143.221
143.173
143.124
143.075
143.027
142.979
142.93
142.882
142.834
142.786
142.738
142.69
142.642
142.595
142.547
142.5
142.452
142.405
142.358
142.311
142.264
142.217
142.17
142.123
142.076
142.03
141.983
141.936
141.89
141.844
141.798
141.751
141.705
141.659
141.613
141.568
141.522
141.476
141.431
141.385
141.34
141.294
141.249
141.204
141.159
141.114
141.069
141.024
140.979
140.935
140.89
140.845
140.801
140.756
140.712
140.668
140.624
140.58
140.535
140.492
140.448
140.404
140.36
140.316
140.273
140.229
140.186
140.142
140.099
140.056
140.013
139.97
139.927
139.884
139.841
139.798
139.755
139.713
139.67
139.627
139.585
139.543
139.5
139.458
139.416
139.374
139.332
139.29
139.248
139.206
139.164
139.122
139.081
139.039
138.998
138.956
138.915
138.873
138.832
138.791
138.75
138.709
138.668
138.627
138.586
138.545
138.504
138.464
138.423
138.382
138.342
138.301
138.261
138.221
138.181
138.14
138.1
138.06
138.02
137.98
137.94
137.9
137.861
137.821
137.781
137.742
137.702
137.663
137.623
137.584
137.545
137.506
137.466
137.427
137.388
137.349
137.31
137.271
137.233
137.194
137.155
137.116
137.078
137.039
137.001
136.962
136.924
136.886
136.847
136.809
136.771
136.733
136.695
136.657
136.619
136.581
136.543
136.505
136.468
136.43
136.393
136.355
136.317
136.28
136.243
136.205
136.168
136.131
136.094
136.056
136.019
135.982
135.945
135.908
135.872
135.835
135.798
135.761
135.725
135.688
135.651
135.615
135.578
135.542
135.506
135.469
135.433
135.397
135.361
135.325
135.288
135.252
135.216
135.181
135.145
135.109
135.073
135.037
135.002
134.966
134.93
134.895
134.859
134.824
134.789
134.753
134.718
134.683
134.647
134.612
134.577
134.542
134.507
134.472
134.437
134.402
134.367
134.333
134.298
134.263
134.229
134.194
134.159
134.125
134.09
134.056
134.022
133.987
133.953
133.919
133.885
133.85
133.816
133.782
133.748
133.714
133.68
133.646
133.612
133.579
133.545
133.511
133.477
133.444
133.41
133.377
133.343
133.31
133.276
133.243
133.209
133.176
133.143
133.11
133.076
133.043
133.01
132.977
132.944
132.911
132.878
132.845
132.812
132.78
132.747
132.714
132.681
132.649
132.616
132.584
132.551
132.519
132.486
132.454
132.421
132.389
132.357
132.324
132.292
132.26
132.228
132.196
132.164
132.132
132.1
132.068
132.036
132.004
131.972
131.94
131.909
131.877
131.845
131.814
131.782
131.75
131.719
131.687
131.656
131.624
131.593
131.562
131.53
131.499
131.468
131.437
131.405
131.374
131.343
131.312
131.281
131.25
131.219
131.188
131.157
131.127
131.096
131.065
131.034
131.004
130.973
130.942
130.912
130.881
130.851
130.82
130.79
130.759
130.729
130.699
130.668
130.638
130.608
130.577
130.547
130.517
130.487
130.457
130.427
130.397
130.367
130.337
130.307
130.277
130.247
130.218
130.188
130.158
130.128
130.099
130.069
130.039
130.01
129.98
129.951
129.921
129.892
129.862
129.833
129.804
129.774
129.745
129.716
129.687
129.657
129.628
129.599