/*--------------------------------*- C++ -*----------------------------------*\
| =========                 |                                                 |
| \\      /  F ield         | OpenFOAM: The Open Source CFD Toolbox           |
|  \\    /   O peration     | Version:  2.4.0                                 |
|   \\  /    A nd           | Web:      www.OpenFOAM.org                      |
|    \\/     M anipulation  |                                                 |
\*---------------------------------------------------------------------------*/
FoamFile
{
    version     2.0;
    format      ascii;
    class       volScalarField;
    location    "1e-06";
    object      T;
}
// * * * * * * * * * * * * * * * * * * * * * * * * * * * * * * * * * * * * * //

dimensions      [0 0 0 1 0 0 0];

internalField   nonuniform List<scalar> 
10000
(
400.01
400.02
400.03
400.04
400.05
400.06
400.07
400.08
400.09
400.1
400.11
400.12
400.13
400.14
400.15
400.16
400.17
400.18
400.19
400.2
400.21
400.22
400.23
400.24
400.25
400.26
400.27
400.28
400.29
400.3
400.31
400.32
400.33
400.34
400.35
400.36
400.37
400.38
400.39
400.4
400.41
400.42
400.43
400.44
400.45
400.46
400.47
400.48
400.49
400.5
400.51
400.52
400.53
400.54
400.55
400.56
400.57
400.58
400.59
400.6
400.61
400.62
400.63
400.64
400.65
400.66
400.67
400.68
400.69
400.7
400.71
400.72
400.73
400.74
400.75
400.76
400.77
400.78
400.79
400.8
400.81
400.82
400.83
400.84
400.85
400.86
400.87
400.88
400.89
400.9
400.91
400.92
400.93
400.94
400.95
400.96
400.97
400.98
400.99
401
401.01
401.02
401.03
401.04
401.05
401.06
401.07
401.08
401.09
401.1
401.11
401.12
401.13
401.14
401.15
401.16
401.17
401.18
401.19
401.2
401.21
401.22
401.23
401.24
401.25
401.26
401.27
401.28
401.29
401.3
401.31
401.32
401.33
401.34
401.35
401.36
401.37
401.38
401.39
401.4
401.41
401.42
401.43
401.44
401.45
401.46
401.47
401.48
401.49
401.5
401.51
401.52
401.53
401.54
401.55
401.56
401.57
401.58
401.59
401.6
401.61
401.62
401.63
401.64
401.65
401.66
401.67
401.68
401.69
401.7
401.71
401.72
401.73
401.74
401.75
401.76
401.77
401.78
401.79
401.8
401.81
401.82
401.83
401.84
401.85
401.86
401.87
401.88
401.89
401.9
401.91
401.92
401.93
401.94
401.95
401.96
401.97
401.98
401.99
402
402.01
402.02
402.03
402.04
402.05
402.06
402.07
402.08
402.09
402.1
402.11
402.12
402.13
402.14
402.15
402.16
402.17
402.18
402.19
402.2
402.21
402.22
402.23
402.24
402.25
402.26
402.27
402.28
402.29
402.3
402.31
402.32
402.33
402.34
402.35
402.36
402.37
402.38
402.39
402.4
402.41
402.42
402.43
402.44
402.45
402.46
402.47
402.48
402.49
402.5
402.51
402.52
402.53
402.54
402.55
402.56
402.57
402.58
402.59
402.6
402.61
402.62
402.63
402.64
402.65
402.66
402.67
402.68
402.69
402.7
402.71
402.72
402.73
402.74
402.75
402.76
402.77
402.78
402.79
402.8
402.81
402.82
402.83
402.84
402.85
402.86
402.87
402.88
402.89
402.9
402.91
402.92
402.93
402.94
402.95
402.96
402.97
402.98
402.99
403
403.01
403.02
403.03
403.04
403.05
403.06
403.07
403.08
403.09
403.1
403.11
403.12
403.13
403.14
403.15
403.16
403.17
403.18
403.19
403.2
403.21
403.22
403.23
403.24
403.25
403.26
403.27
403.28
403.29
403.3
403.31
403.32
403.33
403.34
403.35
403.36
403.37
403.38
403.39
403.4
403.41
403.42
403.43
403.44
403.45
403.46
403.47
403.48
403.49
403.5
403.51
403.52
403.53
403.54
403.55
403.56
403.57
403.58
403.59
403.6
403.61
403.62
403.63
403.64
403.65
403.66
403.67
403.68
403.69
403.7
403.71
403.72
403.73
403.74
403.75
403.76
403.77
403.78
403.79
403.8
403.81
403.82
403.83
403.84
403.85
403.86
403.87
403.88
403.89
403.9
403.91
403.92
403.93
403.94
403.95
403.96
403.97
403.98
403.99
404
404.01
404.02
404.03
404.04
404.05
404.06
404.07
404.08
404.09
404.1
404.11
404.12
404.13
404.14
404.15
404.16
404.17
404.18
404.19
404.2
404.21
404.22
404.23
404.24
404.25
404.26
404.27
404.28
404.29
404.3
404.31
404.32
404.33
404.34
404.35
404.36
404.37
404.38
404.39
404.4
404.41
404.42
404.43
404.44
404.45
404.46
404.47
404.48
404.49
404.5
404.51
404.52
404.53
404.54
404.55
404.56
404.57
404.58
404.59
404.6
404.61
404.62
404.63
404.64
404.65
404.66
404.67
404.68
404.69
404.7
404.71
404.72
404.73
404.74
404.75
404.76
404.77
404.78
404.79
404.8
404.81
404.82
404.83
404.84
404.85
404.86
404.87
404.88
404.89
404.9
404.91
404.92
404.93
404.94
404.95
404.96
404.97
404.98
404.99
405
405.01
405.02
405.03
405.04
405.05
405.06
405.07
405.08
405.09
405.1
405.11
405.12
405.13
405.14
405.15
405.16
405.17
405.18
405.19
405.2
405.21
405.22
405.23
405.24
405.25
405.26
405.27
405.28
405.29
405.3
405.31
405.32
405.33
405.34
405.35
405.36
405.37
405.38
405.39
405.4
405.41
405.42
405.43
405.44
405.45
405.46
405.47
405.48
405.49
405.5
405.51
405.52
405.53
405.54
405.55
405.56
405.57
405.58
405.59
405.6
405.61
405.62
405.63
405.64
405.65
405.66
405.67
405.68
405.69
405.7
405.71
405.72
405.73
405.74
405.75
405.76
405.77
405.78
405.79
405.8
405.81
405.82
405.83
405.84
405.85
405.86
405.87
405.88
405.89
405.9
405.91
405.92
405.93
405.94
405.95
405.96
405.97
405.98
405.99
406
406.01
406.02
406.03
406.04
406.05
406.06
406.07
406.08
406.09
406.1
406.11
406.12
406.13
406.14
406.15
406.16
406.17
406.18
406.19
406.2
406.21
406.22
406.23
406.24
406.25
406.26
406.27
406.28
406.29
406.3
406.31
406.32
406.33
406.34
406.35
406.36
406.37
406.38
406.39
406.4
406.41
406.42
406.43
406.44
406.45
406.46
406.47
406.48
406.49
406.5
406.51
406.52
406.53
406.54
406.55
406.56
406.57
406.58
406.59
406.6
406.61
406.62
406.63
406.64
406.65
406.66
406.67
406.68
406.69
406.7
406.71
406.72
406.73
406.74
406.75
406.76
406.77
406.78
406.79
406.8
406.81
406.82
406.83
406.84
406.85
406.86
406.87
406.88
406.89
406.9
406.91
406.92
406.93
406.94
406.95
406.96
406.97
406.98
406.99
407
407.01
407.02
407.03
407.04
407.05
407.06
407.07
407.08
407.09
407.1
407.11
407.12
407.13
407.14
407.15
407.16
407.17
407.18
407.19
407.2
407.21
407.22
407.23
407.24
407.25
407.26
407.27
407.28
407.29
407.3
407.31
407.32
407.33
407.34
407.35
407.36
407.37
407.38
407.39
407.4
407.41
407.42
407.43
407.44
407.45
407.46
407.47
407.48
407.49
407.5
407.51
407.52
407.53
407.54
407.55
407.56
407.57
407.58
407.59
407.6
407.61
407.62
407.63
407.64
407.65
407.66
407.67
407.68
407.69
407.7
407.71
407.72
407.73
407.74
407.75
407.76
407.77
407.78
407.79
407.8
407.81
407.82
407.83
407.84
407.85
407.86
407.87
407.88
407.89
407.9
407.91
407.92
407.93
407.94
407.95
407.96
407.97
407.98
407.99
408
408.01
408.02
408.03
408.04
408.05
408.06
408.07
408.08
408.09
408.1
408.11
408.12
408.13
408.14
408.15
408.16
408.17
408.18
408.19
408.2
408.21
408.22
408.23
408.24
408.25
408.26
408.27
408.28
408.29
408.3
408.31
408.32
408.33
408.34
408.35
408.36
408.37
408.38
408.39
408.4
408.41
408.42
408.43
408.44
408.45
408.46
408.47
408.48
408.49
408.5
408.51
408.52
408.53
408.54
408.55
408.56
408.57
408.58
408.59
408.6
408.61
408.62
408.63
408.64
408.65
408.66
408.67
408.68
408.69
408.7
408.71
408.72
408.73
408.74
408.75
408.76
408.77
408.78
408.79
408.8
408.81
408.82
408.83
408.84
408.85
408.86
408.87
408.88
408.89
408.9
408.91
408.92
408.93
408.94
408.95
408.96
408.97
408.98
408.99
409
409.01
409.02
409.03
409.04
409.05
409.06
409.07
409.08
409.09
409.1
409.11
409.12
409.13
409.14
409.15
409.16
409.17
409.18
409.19
409.2
409.21
409.22
409.23
409.24
409.25
409.26
409.27
409.28
409.29
409.3
409.31
409.32
409.33
409.34
409.35
409.36
409.37
409.38
409.39
409.4
409.41
409.42
409.43
409.44
409.45
409.46
409.47
409.48
409.49
409.5
409.51
409.52
409.53
409.54
409.55
409.56
409.57
409.58
409.59
409.6
409.61
409.62
409.63
409.64
409.65
409.66
409.67
409.68
409.69
409.7
409.71
409.72
409.73
409.74
409.75
409.76
409.77
409.78
409.79
409.8
409.81
409.82
409.83
409.84
409.85
409.86
409.87
409.88
409.89
409.9
409.91
409.92
409.93
409.94
409.95
409.96
409.97
409.98
409.99
410
410.01
410.02
410.03
410.04
410.05
410.06
410.07
410.08
410.09
410.1
410.11
410.12
410.13
410.14
410.15
410.16
410.17
410.18
410.19
410.2
410.21
410.22
410.23
410.24
410.25
410.26
410.27
410.28
410.29
410.3
410.31
410.32
410.33
410.34
410.35
410.36
410.37
410.38
410.39
410.4
410.41
410.42
410.43
410.44
410.45
410.46
410.47
410.48
410.49
410.5
410.51
410.52
410.53
410.54
410.55
410.56
410.57
410.58
410.59
410.6
410.61
410.62
410.63
410.64
410.65
410.66
410.67
410.68
410.69
410.7
410.71
410.72
410.73
410.74
410.75
410.76
410.77
410.78
410.79
410.8
410.81
410.82
410.83
410.84
410.85
410.86
410.87
410.88
410.89
410.9
410.91
410.92
410.93
410.94
410.95
410.96
410.97
410.98
410.99
411
411.01
411.02
411.03
411.04
411.05
411.06
411.07
411.08
411.09
411.1
411.11
411.12
411.13
411.14
411.15
411.16
411.17
411.18
411.19
411.2
411.21
411.22
411.23
411.24
411.25
411.26
411.27
411.28
411.29
411.3
411.31
411.32
411.33
411.34
411.35
411.36
411.37
411.38
411.39
411.4
411.41
411.42
411.43
411.44
411.45
411.46
411.47
411.48
411.49
411.5
411.51
411.52
411.53
411.54
411.55
411.56
411.57
411.58
411.59
411.6
411.61
411.62
411.63
411.64
411.65
411.66
411.67
411.68
411.69
411.7
411.71
411.72
411.73
411.74
411.75
411.76
411.77
411.78
411.79
411.8
411.81
411.82
411.83
411.84
411.85
411.86
411.87
411.88
411.89
411.9
411.91
411.92
411.93
411.94
411.95
411.96
411.97
411.98
411.99
412
412.01
412.02
412.03
412.04
412.05
412.06
412.07
412.08
412.09
412.1
412.11
412.12
412.13
412.14
412.15
412.16
412.17
412.18
412.19
412.2
412.21
412.22
412.23
412.24
412.25
412.26
412.27
412.28
412.29
412.3
412.31
412.32
412.33
412.34
412.35
412.36
412.37
412.38
412.39
412.4
412.41
412.42
412.43
412.44
412.45
412.46
412.47
412.48
412.49
412.5
412.51
412.52
412.53
412.54
412.55
412.56
412.57
412.58
412.59
412.6
412.61
412.62
412.63
412.64
412.65
412.66
412.67
412.68
412.69
412.7
412.71
412.72
412.73
412.74
412.75
412.76
412.77
412.78
412.79
412.8
412.81
412.82
412.83
412.84
412.85
412.86
412.87
412.88
412.89
412.9
412.91
412.92
412.93
412.94
412.95
412.96
412.97
412.98
412.99
413
413.01
413.02
413.03
413.04
413.05
413.06
413.07
413.08
413.09
413.1
413.11
413.12
413.13
413.14
413.15
413.16
413.17
413.18
413.19
413.2
413.21
413.22
413.23
413.24
413.25
413.26
413.27
413.28
413.29
413.3
413.31
413.32
413.33
413.34
413.35
413.36
413.37
413.38
413.39
413.4
413.41
413.42
413.43
413.44
413.45
413.46
413.47
413.48
413.49
413.5
413.51
413.52
413.53
413.54
413.55
413.56
413.57
413.58
413.59
413.6
413.61
413.62
413.63
413.64
413.65
413.66
413.67
413.68
413.69
413.7
413.71
413.72
413.73
413.74
413.75
413.76
413.77
413.78
413.79
413.8
413.81
413.82
413.83
413.84
413.85
413.86
413.87
413.88
413.89
413.9
413.91
413.92
413.93
413.94
413.95
413.96
413.97
413.98
413.99
414
414.01
414.02
414.03
414.04
414.05
414.06
414.07
414.08
414.09
414.1
414.11
414.12
414.13
414.14
414.15
414.16
414.17
414.18
414.19
414.2
414.21
414.22
414.23
414.24
414.25
414.26
414.27
414.28
414.29
414.3
414.31
414.32
414.33
414.34
414.35
414.36
414.37
414.38
414.39
414.4
414.41
414.42
414.43
414.44
414.45
414.46
414.47
414.48
414.49
414.5
414.51
414.52
414.53
414.54
414.55
414.56
414.57
414.58
414.59
414.6
414.61
414.62
414.63
414.64
414.65
414.66
414.67
414.68
414.69
414.7
414.71
414.72
414.73
414.74
414.75
414.76
414.77
414.78
414.79
414.8
414.81
414.82
414.83
414.84
414.85
414.86
414.87
414.88
414.89
414.9
414.91
414.92
414.93
414.94
414.95
414.96
414.97
414.98
414.99
415
415.01
415.02
415.03
415.04
415.05
415.06
415.07
415.08
415.09
415.1
415.11
415.12
415.13
415.14
415.15
415.16
415.17
415.18
415.19
415.2
415.21
415.22
415.23
415.24
415.25
415.26
415.27
415.28
415.29
415.3
415.31
415.32
415.33
415.34
415.35
415.36
415.37
415.38
415.39
415.4
415.41
415.42
415.43
415.44
415.45
415.46
415.47
415.48
415.49
415.5
415.51
415.52
415.53
415.54
415.55
415.56
415.57
415.58
415.59
415.6
415.61
415.62
415.63
415.64
415.65
415.66
415.67
415.68
415.69
415.7
415.71
415.72
415.73
415.74
415.75
415.76
415.77
415.78
415.79
415.8
415.81
415.82
415.83
415.84
415.85
415.86
415.87
415.88
415.89
415.9
415.91
415.92
415.93
415.94
415.95
415.96
415.97
415.98
415.99
416
416.01
416.02
416.03
416.04
416.05
416.06
416.07
416.08
416.09
416.1
416.11
416.12
416.13
416.14
416.15
416.16
416.17
416.18
416.19
416.2
416.21
416.22
416.23
416.24
416.25
416.26
416.27
416.28
416.29
416.3
416.31
416.32
416.33
416.34
416.35
416.36
416.37
416.38
416.39
416.4
416.41
416.42
416.43
416.44
416.45
416.46
416.47
416.48
416.49
416.5
416.51
416.52
416.53
416.54
416.55
416.56
416.57
416.58
416.59
416.6
416.61
416.62
416.63
416.64
416.65
416.66
416.67
416.68
416.69
416.7
416.71
416.72
416.73
416.74
416.75
416.76
416.77
416.78
416.79
416.8
416.81
416.82
416.83
416.84
416.85
416.86
416.87
416.88
416.89
416.9
416.91
416.92
416.93
416.94
416.95
416.96
416.97
416.98
416.99
417
417.01
417.02
417.03
417.04
417.05
417.06
417.07
417.08
417.09
417.1
417.11
417.12
417.13
417.14
417.15
417.16
417.17
417.18
417.19
417.2
417.21
417.22
417.23
417.24
417.25
417.26
417.27
417.28
417.29
417.3
417.31
417.32
417.33
417.34
417.35
417.36
417.37
417.38
417.39
417.4
417.41
417.42
417.43
417.44
417.45
417.46
417.47
417.48
417.49
417.5
417.51
417.52
417.53
417.54
417.55
417.56
417.57
417.58
417.59
417.6
417.61
417.62
417.63
417.64
417.65
417.66
417.67
417.68
417.69
417.7
417.71
417.72
417.73
417.74
417.75
417.76
417.77
417.78
417.79
417.8
417.81
417.82
417.83
417.84
417.85
417.86
417.87
417.88
417.89
417.9
417.91
417.92
417.93
417.94
417.95
417.96
417.97
417.98
417.99
418
418.01
418.02
418.03
418.04
418.05
418.06
418.07
418.08
418.09
418.1
418.11
418.12
418.13
418.14
418.15
418.16
418.17
418.18
418.19
418.2
418.21
418.22
418.23
418.24
418.25
418.26
418.27
418.28
418.29
418.3
418.31
418.32
418.33
418.34
418.35
418.36
418.37
418.38
418.39
418.4
418.41
418.42
418.43
418.44
418.45
418.46
418.47
418.48
418.49
418.5
418.51
418.52
418.53
418.54
418.55
418.56
418.57
418.58
418.59
418.6
418.61
418.62
418.63
418.64
418.65
418.66
418.67
418.68
418.69
418.7
418.71
418.72
418.73
418.74
418.75
418.76
418.77
418.78
418.79
418.8
418.81
418.82
418.83
418.84
418.85
418.86
418.87
418.88
418.89
418.9
418.91
418.92
418.93
418.94
418.95
418.96
418.97
418.98
418.99
419
419.01
419.02
419.03
419.04
419.05
419.06
419.07
419.08
419.09
419.1
419.11
419.12
419.13
419.14
419.15
419.16
419.17
419.18
419.19
419.2
419.21
419.22
419.23
419.24
419.25
419.26
419.27
419.28
419.29
419.3
419.31
419.32
419.33
419.34
419.35
419.36
419.37
419.38
419.39
419.4
419.41
419.42
419.43
419.44
419.45
419.46
419.47
419.48
419.49
419.5
419.51
419.52
419.53
419.54
419.55
419.56
419.57
419.58
419.59
419.6
419.61
419.62
419.63
419.64
419.65
419.66
419.67
419.68
419.69
419.7
419.71
419.72
419.73
419.74
419.75
419.76
419.77
419.78
419.79
419.8
419.81
419.82
419.83
419.84
419.85
419.86
419.87
419.88
419.89
419.9
419.91
419.92
419.93
419.94
419.95
419.96
419.97
419.98
419.99
420
420.01
420.02
420.03
420.04
420.05
420.06
420.07
420.08
420.09
420.1
420.11
420.12
420.13
420.14
420.15
420.16
420.17
420.18
420.19
420.2
420.21
420.22
420.23
420.24
420.25
420.26
420.27
420.28
420.29
420.3
420.31
420.32
420.33
420.34
420.35
420.36
420.37
420.38
420.39
420.4
420.41
420.42
420.43
420.44
420.45
420.46
420.47
420.48
420.49
420.5
420.51
420.52
420.53
420.54
420.55
420.56
420.57
420.58
420.59
420.6
420.61
420.62
420.63
420.64
420.65
420.66
420.67
420.68
420.69
420.7
420.71
420.72
420.73
420.74
420.75
420.76
420.77
420.78
420.79
420.8
420.81
420.82
420.83
420.84
420.85
420.86
420.87
420.88
420.89
420.9
420.91
420.92
420.93
420.94
420.95
420.96
420.97
420.98
420.99
421
421.01
421.02
421.03
421.04
421.05
421.06
421.07
421.08
421.09
421.1
421.11
421.12
421.13
421.14
421.15
421.16
421.17
421.18
421.19
421.2
421.21
421.22
421.23
421.24
421.25
421.26
421.27
421.28
421.29
421.3
421.31
421.32
421.33
421.34
421.35
421.36
421.37
421.38
421.39
421.4
421.41
421.42
421.43
421.44
421.45
421.46
421.47
421.48
421.49
421.5
421.51
421.52
421.53
421.54
421.55
421.56
421.57
421.58
421.59
421.6
421.61
421.62
421.63
421.64
421.65
421.66
421.67
421.68
421.69
421.7
421.71
421.72
421.73
421.74
421.75
421.76
421.77
421.78
421.79
421.8
421.81
421.82
421.83
421.84
421.85
421.86
421.87
421.88
421.89
421.9
421.91
421.92
421.93
421.94
421.95
421.96
421.97
421.98
421.99
422
422.01
422.02
422.03
422.04
422.05
422.06
422.07
422.08
422.09
422.1
422.11
422.12
422.13
422.14
422.15
422.16
422.17
422.18
422.19
422.2
422.21
422.22
422.23
422.24
422.25
422.26
422.27
422.28
422.29
422.3
422.31
422.32
422.33
422.34
422.35
422.36
422.37
422.38
422.39
422.4
422.41
422.42
422.43
422.44
422.45
422.46
422.47
422.48
422.49
422.5
422.51
422.52
422.53
422.54
422.55
422.56
422.57
422.58
422.59
422.6
422.61
422.62
422.63
422.64
422.65
422.66
422.67
422.68
422.69
422.7
422.71
422.72
422.73
422.74
422.75
422.76
422.77
422.78
422.79
422.8
422.81
422.82
422.83
422.84
422.85
422.86
422.87
422.88
422.89
422.9
422.91
422.92
422.93
422.94
422.95
422.96
422.97
422.98
422.99
423
423.01
423.02
423.03
423.04
423.05
423.06
423.07
423.08
423.09
423.1
423.11
423.12
423.13
423.14
423.15
423.16
423.17
423.18
423.19
423.2
423.21
423.22
423.23
423.24
423.25
423.26
423.27
423.28
423.29
423.3
423.31
423.32
423.33
423.34
423.35
423.36
423.37
423.38
423.39
423.4
423.41
423.42
423.43
423.44
423.45
423.46
423.47
423.48
423.49
423.5
423.51
423.52
423.53
423.54
423.55
423.56
423.57
423.58
423.59
423.6
423.61
423.62
423.63
423.64
423.65
423.66
423.67
423.68
423.69
423.7
423.71
423.72
423.73
423.74
423.75
423.76
423.77
423.78
423.79
423.8
423.81
423.82
423.83
423.84
423.85
423.86
423.87
423.88
423.89
423.9
423.91
423.92
423.93
423.94
423.95
423.96
423.97
423.98
423.99
424
424.01
424.02
424.03
424.04
424.05
424.06
424.07
424.08
424.09
424.1
424.11
424.12
424.13
424.14
424.15
424.16
424.17
424.18
424.19
424.2
424.21
424.22
424.23
424.24
424.25
424.26
424.27
424.28
424.29
424.3
424.31
424.32
424.33
424.34
424.35
424.36
424.37
424.38
424.39
424.4
424.41
424.42
424.43
424.44
424.45
424.46
424.47
424.48
424.49
424.5
424.51
424.52
424.53
424.54
424.55
424.56
424.57
424.58
424.59
424.6
424.61
424.62
424.63
424.64
424.65
424.66
424.67
424.68
424.69
424.7
424.71
424.72
424.73
424.74
424.75
424.76
424.77
424.78
424.79
424.8
424.81
424.82
424.83
424.84
424.85
424.86
424.87
424.88
424.89
424.9
424.91
424.92
424.93
424.94
424.95
424.96
424.97
424.98
424.99
425
425.01
425.02
425.03
425.04
425.05
425.06
425.07
425.08
425.09
425.1
425.11
425.12
425.13
425.14
425.15
425.16
425.17
425.18
425.19
425.2
425.21
425.22
425.23
425.24
425.25
425.26
425.27
425.28
425.29
425.3
425.31
425.32
425.33
425.34
425.35
425.36
425.37
425.38
425.39
425.4
425.41
425.42
425.43
425.44
425.45
425.46
425.47
425.48
425.49
425.5
425.51
425.52
425.53
425.54
425.55
425.56
425.57
425.58
425.59
425.6
425.61
425.62
425.63
425.64
425.65
425.66
425.67
425.68
425.69
425.7
425.71
425.72
425.73
425.74
425.75
425.76
425.77
425.78
425.79
425.8
425.81
425.82
425.83
425.84
425.85
425.86
425.87
425.88
425.89
425.9
425.91
425.92
425.93
425.94
425.95
425.96
425.97
425.98
425.99
426
426.01
426.02
426.03
426.04
426.05
426.06
426.07
426.08
426.09
426.1
426.11
426.12
426.13
426.14
426.15
426.16
426.17
426.18
426.19
426.2
426.21
426.22
426.23
426.24
426.25
426.26
426.27
426.28
426.29
426.3
426.31
426.32
426.33
426.34
426.35
426.36
426.37
426.38
426.39
426.4
426.41
426.42
426.43
426.44
426.45
426.46
426.47
426.48
426.49
426.5
426.51
426.52
426.53
426.54
426.55
426.56
426.57
426.58
426.59
426.6
426.61
426.62
426.63
426.64
426.65
426.66
426.67
426.68
426.69
426.7
426.71
426.72
426.73
426.74
426.75
426.76
426.77
426.78
426.79
426.8
426.81
426.82
426.83
426.84
426.85
426.86
426.87
426.88
426.89
426.9
426.91
426.92
426.93
426.94
426.95
426.96
426.97
426.98
426.99
427
427.01
427.02
427.03
427.04
427.05
427.06
427.07
427.08
427.09
427.1
427.11
427.12
427.13
427.14
427.15
427.16
427.17
427.18
427.19
427.2
427.21
427.22
427.23
427.24
427.25
427.26
427.27
427.28
427.29
427.3
427.31
427.32
427.33
427.34
427.35
427.36
427.37
427.38
427.39
427.4
427.41
427.42
427.43
427.44
427.45
427.46
427.47
427.48
427.49
427.5
427.51
427.52
427.53
427.54
427.55
427.56
427.57
427.58
427.59
427.6
427.61
427.62
427.63
427.64
427.65
427.66
427.67
427.68
427.69
427.7
427.71
427.72
427.73
427.74
427.75
427.76
427.77
427.78
427.79
427.8
427.81
427.82
427.83
427.84
427.85
427.86
427.87
427.88
427.89
427.9
427.91
427.92
427.93
427.94
427.95
427.96
427.97
427.98
427.99
428
428.01
428.02
428.03
428.04
428.05
428.06
428.07
428.08
428.09
428.1
428.11
428.12
428.13
428.14
428.15
428.16
428.17
428.18
428.19
428.2
428.21
428.22
428.23
428.24
428.25
428.26
428.27
428.28
428.29
428.3
428.31
428.32
428.33
428.34
428.35
428.36
428.37
428.38
428.39
428.4
428.41
428.42
428.43
428.44
428.45
428.46
428.47
428.48
428.49
428.5
428.51
428.52
428.53
428.54
428.55
428.56
428.57
428.58
428.59
428.6
428.61
428.62
428.63
428.64
428.65
428.66
428.67
428.68
428.69
428.7
428.71
428.72
428.73
428.74
428.75
428.76
428.77
428.78
428.79
428.8
428.81
428.82
428.83
428.84
428.85
428.86
428.87
428.88
428.89
428.9
428.91
428.92
428.93
428.94
428.95
428.96
428.97
428.98
428.99
429
429.01
429.02
429.03
429.04
429.05
429.06
429.07
429.08
429.09
429.1
429.11
429.12
429.13
429.14
429.15
429.16
429.17
429.18
429.19
429.2
429.21
429.22
429.23
429.24
429.25
429.26
429.27
429.28
429.29
429.3
429.31
429.32
429.33
429.34
429.35
429.36
429.37
429.38
429.39
429.4
429.41
429.42
429.43
429.44
429.45
429.46
429.47
429.48
429.49
429.5
429.51
429.52
429.53
429.54
429.55
429.56
429.57
429.58
429.59
429.6
429.61
429.62
429.63
429.64
429.65
429.66
429.67
429.68
429.69
429.7
429.71
429.72
429.73
429.74
429.75
429.76
429.77
429.78
429.79
429.8
429.81
429.82
429.83
429.84
429.85
429.86
429.87
429.88
429.89
429.9
429.91
429.92
429.93
429.94
429.95
429.96
429.97
429.98
429.99
430
430.01
430.02
430.03
430.04
430.05
430.06
430.07
430.08
430.09
430.1
430.11
430.12
430.13
430.14
430.15
430.16
430.17
430.18
430.19
430.2
430.21
430.22
430.23
430.24
430.25
430.26
430.27
430.28
430.29
430.3
430.31
430.32
430.33
430.34
430.35
430.36
430.37
430.38
430.39
430.4
430.41
430.42
430.43
430.44
430.45
430.46
430.47
430.48
430.49
430.5
430.51
430.52
430.53
430.54
430.55
430.56
430.57
430.58
430.59
430.6
430.61
430.62
430.63
430.64
430.65
430.66
430.67
430.68
430.69
430.7
430.71
430.72
430.73
430.74
430.75
430.76
430.77
430.78
430.79
430.8
430.81
430.82
430.83
430.84
430.85
430.86
430.87
430.88
430.89
430.9
430.91
430.92
430.93
430.94
430.95
430.96
430.97
430.98
430.99
431
431.01
431.02
431.03
431.04
431.05
431.06
431.07
431.08
431.09
431.1
431.11
431.12
431.13
431.14
431.15
431.16
431.17
431.18
431.19
431.2
431.21
431.22
431.23
431.24
431.25
431.26
431.27
431.28
431.29
431.3
431.31
431.32
431.33
431.34
431.35
431.36
431.37
431.38
431.39
431.4
431.41
431.42
431.43
431.44
431.45
431.46
431.47
431.48
431.49
431.5
431.51
431.52
431.53
431.54
431.55
431.56
431.57
431.58
431.59
431.6
431.61
431.62
431.63
431.64
431.65
431.66
431.67
431.68
431.69
431.7
431.71
431.72
431.73
431.74
431.75
431.76
431.77
431.78
431.79
431.8
431.81
431.82
431.83
431.84
431.85
431.86
431.87
431.88
431.89
431.9
431.91
431.92
431.93
431.94
431.95
431.96
431.97
431.98
431.99
432
432.01
432.02
432.03
432.04
432.05
432.06
432.07
432.08
432.09
432.1
432.11
432.12
432.13
432.14
432.15
432.16
432.17
432.18
432.19
432.2
432.21
432.22
432.23
432.24
432.25
432.26
432.27
432.28
432.29
432.3
432.31
432.32
432.33
432.34
432.35
432.36
432.37
432.38
432.39
432.4
432.41
432.42
432.43
432.44
432.45
432.46
432.47
432.48
432.49
432.5
432.51
432.52
432.53
432.54
432.55
432.56
432.57
432.58
432.59
432.6
432.61
432.62
432.63
432.64
432.65
432.66
432.67
432.68
432.69
432.7
432.71
432.72
432.73
432.74
432.75
432.76
432.77
432.78
432.79
432.8
432.81
432.82
432.83
432.84
432.85
432.86
432.87
432.88
432.89
432.9
432.91
432.92
432.93
432.94
432.95
432.96
432.97
432.98
432.99
433
433.01
433.02
433.03
433.04
433.05
433.06
433.07
433.08
433.09
433.1
433.11
433.12
433.13
433.14
433.15
433.16
433.17
433.18
433.19
433.2
433.21
433.22
433.23
433.24
433.25
433.26
433.27
433.28
433.29
433.3
433.31
433.32
433.33
433.34
433.35
433.36
433.37
433.38
433.39
433.4
433.41
433.42
433.43
433.44
433.45
433.46
433.47
433.48
433.49
433.5
433.51
433.52
433.53
433.54
433.55
433.56
433.57
433.58
433.59
433.6
433.61
433.62
433.63
433.64
433.65
433.66
433.67
433.68
433.69
433.7
433.71
433.72
433.73
433.74
433.75
433.76
433.77
433.78
433.79
433.8
433.81
433.82
433.83
433.84
433.85
433.86
433.87
433.88
433.89
433.9
433.91
433.92
433.93
433.94
433.95
433.96
433.97
433.98
433.99
434
434.01
434.02
434.03
434.04
434.05
434.06
434.07
434.08
434.09
434.1
434.11
434.12
434.13
434.14
434.15
434.16
434.17
434.18
434.19
434.2
434.21
434.22
434.23
434.24
434.25
434.26
434.27
434.28
434.29
434.3
434.31
434.32
434.33
434.34
434.35
434.36
434.37
434.38
434.39
434.4
434.41
434.42
434.43
434.44
434.45
434.46
434.47
434.48
434.49
434.5
434.51
434.52
434.53
434.54
434.55
434.56
434.57
434.58
434.59
434.6
434.61
434.62
434.63
434.64
434.65
434.66
434.67
434.68
434.69
434.7
434.71
434.72
434.73
434.74
434.75
434.76
434.77
434.78
434.79
434.8
434.81
434.82
434.83
434.84
434.85
434.86
434.87
434.88
434.89
434.9
434.91
434.92
434.93
434.94
434.95
434.96
434.97
434.98
434.99
435
435.01
435.02
435.03
435.04
435.05
435.06
435.07
435.08
435.09
435.1
435.11
435.12
435.13
435.14
435.15
435.16
435.17
435.18
435.19
435.2
435.21
435.22
435.23
435.24
435.25
435.26
435.27
435.28
435.29
435.3
435.31
435.32
435.33
435.34
435.35
435.36
435.37
435.38
435.39
435.4
435.41
435.42
435.43
435.44
435.45
435.46
435.47
435.48
435.49
435.5
435.51
435.52
435.53
435.54
435.55
435.56
435.57
435.58
435.59
435.6
435.61
435.62
435.63
435.64
435.65
435.66
435.67
435.68
435.69
435.7
435.71
435.72
435.73
435.74
435.75
435.76
435.77
435.78
435.79
435.8
435.81
435.82
435.83
435.84
435.85
435.86
435.87
435.88
435.89
435.9
435.91
435.92
435.93
435.94
435.95
435.96
435.97
435.98
435.99
436
436.01
436.02
436.03
436.04
436.05
436.06
436.07
436.08
436.09
436.1
436.11
436.12
436.13
436.14
436.15
436.16
436.17
436.18
436.19
436.2
436.21
436.22
436.23
436.24
436.25
436.26
436.27
436.28
436.29
436.3
436.31
436.32
436.33
436.34
436.35
436.36
436.37
436.38
436.39
436.4
436.41
436.42
436.43
436.44
436.45
436.46
436.47
436.48
436.49
436.5
436.51
436.52
436.53
436.54
436.55
436.56
436.57
436.58
436.59
436.6
436.61
436.62
436.63
436.64
436.65
436.66
436.67
436.68
436.69
436.7
436.71
436.72
436.73
436.74
436.75
436.76
436.77
436.78
436.79
436.8
436.81
436.82
436.83
436.84
436.85
436.86
436.87
436.88
436.89
436.9
436.91
436.92
436.93
436.94
436.95
436.96
436.97
436.98
436.99
437
437.01
437.02
437.03
437.04
437.05
437.06
437.07
437.08
437.09
437.1
437.11
437.12
437.13
437.14
437.15
437.16
437.17
437.18
437.19
437.2
437.21
437.22
437.23
437.24
437.25
437.26
437.27
437.28
437.29
437.3
437.31
437.32
437.33
437.34
437.35
437.36
437.37
437.38
437.39
437.4
437.41
437.42
437.43
437.44
437.45
437.46
437.47
437.48
437.49
437.5
437.51
437.52
437.53
437.54
437.55
437.56
437.57
437.58
437.59
437.6
437.61
437.62
437.63
437.64
437.65
437.66
437.67
437.68
437.69
437.7
437.71
437.72
437.73
437.74
437.75
437.76
437.77
437.78
437.79
437.8
437.81
437.82
437.83
437.84
437.85
437.86
437.87
437.88
437.89
437.9
437.91
437.92
437.93
437.94
437.95
437.96
437.97
437.98
437.99
438
438.01
438.02
438.03
438.04
438.05
438.06
438.07
438.08
438.09
438.1
438.11
438.12
438.13
438.14
438.15
438.16
438.17
438.18
438.19
438.2
438.21
438.22
438.23
438.24
438.25
438.26
438.27
438.28
438.29
438.3
438.31
438.32
438.33
438.34
438.35
438.36
438.37
438.38
438.39
438.4
438.41
438.42
438.43
438.44
438.45
438.46
438.47
438.48
438.49
438.5
438.51
438.52
438.53
438.54
438.55
438.56
438.57
438.58
438.59
438.6
438.61
438.62
438.63
438.64
438.65
438.66
438.67
438.68
438.69
438.7
438.71
438.72
438.73
438.74
438.75
438.76
438.77
438.78
438.79
438.8
438.81
438.82
438.83
438.84
438.85
438.86
438.87
438.88
438.89
438.9
438.91
438.92
438.93
438.94
438.95
438.96
438.97
438.98
438.99
439
439.01
439.02
439.03
439.04
439.05
439.06
439.07
439.08
439.09
439.1
439.11
439.12
439.13
439.14
439.15
439.16
439.17
439.18
439.19
439.2
439.21
439.22
439.23
439.24
439.25
439.26
439.27
439.28
439.29
439.3
439.31
439.32
439.33
439.34
439.35
439.36
439.37
439.38
439.39
439.4
439.41
439.42
439.43
439.44
439.45
439.46
439.47
439.48
439.49
439.5
439.51
439.52
439.53
439.54
439.55
439.56
439.57
439.58
439.59
439.6
439.61
439.62
439.63
439.64
439.65
439.66
439.67
439.68
439.69
439.7
439.71
439.72
439.73
439.74
439.75
439.76
439.77
439.78
439.79
439.8
439.81
439.82
439.83
439.84
439.85
439.86
439.87
439.88
439.89
439.9
439.91
439.92
439.93
439.94
439.95
439.96
439.97
439.98
439.99
440
440.01
440.02
440.03
440.04
440.05
440.06
440.07
440.08
440.09
440.1
440.11
440.12
440.13
440.14
440.15
440.16
440.17
440.18
440.19
440.2
440.21
440.22
440.23
440.24
440.25
440.26
440.27
440.28
440.29
440.3
440.31
440.32
440.33
440.34
440.35
440.36
440.37
440.38
440.39
440.4
440.41
440.42
440.43
440.44
440.45
440.46
440.47
440.48
440.49
440.5
440.51
440.52
440.53
440.54
440.55
440.56
440.57
440.58
440.59
440.6
440.61
440.62
440.63
440.64
440.65
440.66
440.67
440.68
440.69
440.7
440.71
440.72
440.73
440.74
440.75
440.76
440.77
440.78
440.79
440.8
440.81
440.82
440.83
440.84
440.85
440.86
440.87
440.88
440.89
440.9
440.91
440.92
440.93
440.94
440.95
440.96
440.97
440.98
440.99
441
441.01
441.02
441.03
441.04
441.05
441.06
441.07
441.08
441.09
441.1
441.11
441.12
441.13
441.14
441.15
441.16
441.17
441.18
441.19
441.2
441.21
441.22
441.23
441.24
441.25
441.26
441.27
441.28
441.29
441.3
441.31
441.32
441.33
441.34
441.35
441.36
441.37
441.38
441.39
441.4
441.41
441.42
441.43
441.44
441.45
441.46
441.47
441.48
441.49
441.5
441.51
441.52
441.53
441.54
441.55
441.56
441.57
441.58
441.59
441.6
441.61
441.62
441.63
441.64
441.65
441.66
441.67
441.68
441.69
441.7
441.71
441.72
441.73
441.74
441.75
441.76
441.77
441.78
441.79
441.8
441.81
441.82
441.83
441.84
441.85
441.86
441.87
441.88
441.89
441.9
441.91
441.92
441.93
441.94
441.95
441.96
441.97
441.98
441.99
442
442.01
442.02
442.03
442.04
442.05
442.06
442.07
442.08
442.09
442.1
442.11
442.12
442.13
442.14
442.15
442.16
442.17
442.18
442.19
442.2
442.21
442.22
442.23
442.24
442.25
442.26
442.27
442.28
442.29
442.3
442.31
442.32
442.33
442.34
442.35