/*--------------------------------*- C++ -*----------------------------------*\
| =========                 |                                                 |
| \\      /  F ield         | OpenFOAM: The Open Source CFD Toolbox           |
|  \\    /   O peration     | Version:  2.4.0                                 |
|   \\  /    A nd           | Web:      www.OpenFOAM.org                      |
|    \\/     M anipulation  |                                                 |
\*---------------------------------------------------------------------------*/
FoamFile
{
    version     2.0;
    format      ascii;
    class       volScalarField;
    location    "1e-06";
    object      thermo:Cv;
}
// * * * * * * * * * * * * * * * * * * * * * * * * * * * * * * * * * * * * * //

dimensions      [0 2 -2 -1 0 0 0];

internalField   nonuniform List<scalar> 
10000
(
2217.1
2217.13
2217.16
2217.19
2217.22
2217.26
2217.29
2217.32
2217.35
2217.38
2217.41
2217.44
2217.47
2217.5
2217.53
2217.57
2217.6
2217.63
2217.66
2217.69
2217.72
2217.75
2217.78
2217.81
2217.84
2217.88
2217.91
2217.94
2217.97
2218
2218.03
2218.06
2218.09
2218.12
2218.15
2218.19
2218.22
2218.25
2218.28
2218.31
2218.34
2218.37
2218.4
2218.43
2218.46
2218.5
2218.53
2218.56
2218.59
2218.62
2218.65
2218.68
2218.71
2218.74
2218.77
2218.8
2218.84
2218.87
2218.9
2218.93
2218.96
2218.99
2219.02
2219.05
2219.08
2219.11
2219.14
2219.17
2219.21
2219.24
2219.27
2219.3
2219.33
2219.36
2219.39
2219.42
2219.45
2219.48
2219.51
2219.55
2219.58
2219.61
2219.64
2219.67
2219.7
2219.73
2219.76
2219.79
2219.82
2219.85
2219.88
2219.91
2219.95
2219.98
2220.01
2220.04
2220.07
2220.1
2220.13
2220.16
2220.19
2220.22
2220.25
2220.28
2220.31
2220.35
2220.38
2220.41
2220.44
2220.47
2220.5
2220.53
2220.56
2220.59
2220.62
2220.65
2220.68
2220.71
2220.75
2220.78
2220.81
2220.84
2220.87
2220.9
2220.93
2220.96
2220.99
2221.02
2221.05
2221.08
2221.11
2221.14
2221.17
2221.21
2221.24
2221.27
2221.3
2221.33
2221.36
2221.39
2221.42
2221.45
2221.48
2221.51
2221.54
2221.57
2221.6
2221.63
2221.66
2221.7
2221.73
2221.76
2221.79
2221.82
2221.85
2221.88
2221.91
2221.94
2221.97
2222
2222.03
2222.06
2222.09
2222.12
2222.15
2222.18
2222.22
2222.25
2222.28
2222.31
2222.34
2222.37
2222.4
2222.43
2222.46
2222.49
2222.52
2222.55
2222.58
2222.61
2222.64
2222.67
2222.7
2222.73
2222.76
2222.8
2222.83
2222.86
2222.89
2222.92
2222.95
2222.98
2223.01
2223.04
2223.07
2223.1
2223.13
2223.16
2223.19
2223.22
2223.25
2223.28
2223.31
2223.34
2223.37
2223.4
2223.44
2223.47
2223.5
2223.53
2223.56
2223.59
2223.62
2223.65
2223.68
2223.71
2223.74
2223.77
2223.8
2223.83
2223.86
2223.89
2223.92
2223.95
2223.98
2224.01
2224.04
2224.07
2224.1
2224.13
2224.16
2224.19
2224.23
2224.26
2224.29
2224.32
2224.35
2224.38
2224.41
2224.44
2224.47
2224.5
2224.53
2224.56
2224.59
2224.62
2224.65
2224.68
2224.71
2224.74
2224.77
2224.8
2224.83
2224.86
2224.89
2224.92
2224.95
2224.98
2225.01
2225.04
2225.07
2225.1
2225.13
2225.16
2225.19
2225.22
2225.25
2225.29
2225.32
2225.35
2225.38
2225.41
2225.44
2225.47
2225.5
2225.53
2225.56
2225.59
2225.62
2225.65
2225.68
2225.71
2225.74
2225.77
2225.8
2225.83
2225.86
2225.89
2225.92
2225.95
2225.98
2226.01
2226.04
2226.07
2226.1
2226.13
2226.16
2226.19
2226.22
2226.25
2226.28
2226.31
2226.34
2226.37
2226.4
2226.43
2226.46
2226.49
2226.52
2226.55
2226.58
2226.61
2226.64
2226.67
2226.7
2226.73
2226.76
2226.79
2226.82
2226.85
2226.88
2226.91
2226.94
2226.97
2227
2227.03
2227.06
2227.09
2227.12
2227.15
2227.18
2227.21
2227.24
2227.27
2227.3
2227.33
2227.36
2227.39
2227.42
2227.45
2227.48
2227.51
2227.54
2227.57
2227.6
2227.63
2227.66
2227.69
2227.72
2227.75
2227.78
2227.81
2227.84
2227.87
2227.9
2227.93
2227.96
2227.99
2228.02
2228.05
2228.08
2228.11
2228.14
2228.17
2228.2
2228.23
2228.26
2228.29
2228.32
2228.35
2228.38
2228.41
2228.44
2228.47
2228.5
2228.53
2228.56
2228.59
2228.62
2228.65
2228.68
2228.71
2228.74
2228.77
2228.8
2228.83
2228.86
2228.89
2228.92
2228.95
2228.98
2229.01
2229.04
2229.07
2229.1
2229.13
2229.16
2229.19
2229.22
2229.25
2229.27
2229.3
2229.33
2229.36
2229.39
2229.42
2229.45
2229.48
2229.51
2229.54
2229.57
2229.6
2229.63
2229.66
2229.69
2229.72
2229.75
2229.78
2229.81
2229.84
2229.87
2229.9
2229.93
2229.96
2229.99
2230.02
2230.05
2230.08
2230.11
2230.14
2230.17
2230.2
2230.23
2230.26
2230.28
2230.31
2230.34
2230.37
2230.4
2230.43
2230.46
2230.49
2230.52
2230.55
2230.58
2230.61
2230.64
2230.67
2230.7
2230.73
2230.76
2230.79
2230.82
2230.85
2230.88
2230.91
2230.94
2230.97
2230.99
2231.02
2231.05
2231.08
2231.11
2231.14
2231.17
2231.2
2231.23
2231.26
2231.29
2231.32
2231.35
2231.38
2231.41
2231.44
2231.47
2231.5
2231.53
2231.56
2231.59
2231.61
2231.64
2231.67
2231.7
2231.73
2231.76
2231.79
2231.82
2231.85
2231.88
2231.91
2231.94
2231.97
2232
2232.03
2232.06
2232.09
2232.12
2232.14
2232.17
2232.2
2232.23
2232.26
2232.29
2232.32
2232.35
2232.38
2232.41
2232.44
2232.47
2232.5
2232.53
2232.56
2232.59
2232.61
2232.64
2232.67
2232.7
2232.73
2232.76
2232.79
2232.82
2232.85
2232.88
2232.91
2232.94
2232.97
2233
2233.02
2233.05
2233.08
2233.11
2233.14
2233.17
2233.2
2233.23
2233.26
2233.29
2233.32
2233.35
2233.38
2233.41
2233.43
2233.46
2233.49
2233.52
2233.55
2233.58
2233.61
2233.64
2233.67
2233.7
2233.73
2233.76
2233.78
2233.81
2233.84
2233.87
2233.9
2233.93
2233.96
2233.99
2234.02
2234.05
2234.08
2234.11
2234.13
2234.16
2234.19
2234.22
2234.25
2234.28
2234.31
2234.34
2234.37
2234.4
2234.43
2234.46
2234.48
2234.51
2234.54
2234.57
2234.6
2234.63
2234.66
2234.69
2234.72
2234.75
2234.77
2234.8
2234.83
2234.86
2234.89
2234.92
2234.95
2234.98
2235.01
2235.04
2235.07
2235.09
2235.12
2235.15
2235.18
2235.21
2235.24
2235.27
2235.3
2235.33
2235.36
2235.38
2235.41
2235.44
2235.47
2235.5
2235.53
2235.56
2235.59
2235.62
2235.64
2235.67
2235.7
2235.73
2235.76
2235.79
2235.82
2235.85
2235.88
2235.9
2235.93
2235.96
2235.99
2236.02
2236.05
2236.08
2236.11
2236.14
2236.16
2236.19
2236.22
2236.25
2236.28
2236.31
2236.34
2236.37
2236.4
2236.42
2236.45
2236.48
2236.51
2236.54
2236.57
2236.6
2236.63
2236.65
2236.68
2236.71
2236.74
2236.77
2236.8
2236.83
2236.86
2236.88
2236.91
2236.94
2236.97
2237
2237.03
2237.06
2237.09
2237.11
2237.14
2237.17
2237.2
2237.23
2237.26
2237.29
2237.32
2237.34
2237.37
2237.4
2237.43
2237.46
2237.49
2237.52
2237.54
2237.57
2237.6
2237.63
2237.66
2237.69
2237.72
2237.74
2237.77
2237.8
2237.83
2237.86
2237.89
2237.92
2237.95
2237.97
2238
2238.03
2238.06
2238.09
2238.12
2238.15
2238.17
2238.2
2238.23
2238.26
2238.29
2238.32
2238.34
2238.37
2238.4
2238.43
2238.46
2238.49
2238.52
2238.54
2238.57
2238.6
2238.63
2238.66
2238.69
2238.72
2238.74
2238.77
2238.8
2238.83
2238.86
2238.89
2238.91
2238.94
2238.97
2239
2239.03
2239.06
2239.09
2239.11
2239.14
2239.17
2239.2
2239.23
2239.26
2239.28
2239.31
2239.34
2239.37
2239.4
2239.43
2239.45
2239.48
2239.51
2239.54
2239.57
2239.6
2239.62
2239.65
2239.68
2239.71
2239.74
2239.77
2239.79
2239.82
2239.85
2239.88
2239.91
2239.94
2239.96
2239.99
2240.02
2240.05
2240.08
2240.1
2240.13
2240.16
2240.19
2240.22
2240.25
2240.27
2240.3
2240.33
2240.36
2240.39
2240.42
2240.44
2240.47
2240.5
2240.53
2240.56
2240.58
2240.61
2240.64
2240.67
2240.7
2240.73
2240.75
2240.78
2240.81
2240.84
2240.87
2240.89
2240.92
2240.95
2240.98
2241.01
2241.03
2241.06
2241.09
2241.12
2241.15
2241.17
2241.2
2241.23
2241.26
2241.29
2241.32
2241.34
2241.37
2241.4
2241.43
2241.46
2241.48
2241.51
2241.54
2241.57
2241.6
2241.62
2241.65
2241.68
2241.71
2241.74
2241.76
2241.79
2241.82
2241.85
2241.88
2241.9
2241.93
2241.96
2241.99
2242.01
2242.04
2242.07
2242.1
2242.13
2242.15
2242.18
2242.21
2242.24
2242.27
2242.29
2242.32
2242.35
2242.38
2242.41
2242.43
2242.46
2242.49
2242.52
2242.54
2242.57
2242.6
2242.63
2242.66
2242.68
2242.71
2242.74
2242.77
2242.8
2242.82
2242.85
2242.88
2242.91
2242.93
2242.96
2242.99
2243.02
2243.04
2243.07
2243.1
2243.13
2243.16
2243.18
2243.21
2243.24
2243.27
2243.29
2243.32
2243.35
2243.38
2243.41
2243.43
2243.46
2243.49
2243.52
2243.54
2243.57
2243.6
2243.63
2243.65
2243.68
2243.71
2243.74
2243.76
2243.79
2243.82
2243.85
2243.88
2243.9
2243.93
2243.96
2243.99
2244.01
2244.04
2244.07
2244.1
2244.12
2244.15
2244.18
2244.21
2244.23
2244.26
2244.29
2244.32
2244.34
2244.37
2244.4
2244.43
2244.45
2244.48
2244.51
2244.54
2244.56
2244.59
2244.62
2244.65
2244.67
2244.7
2244.73
2244.76
2244.78
2244.81
2244.84
2244.87
2244.89
2244.92
2244.95
2244.97
2245
2245.03
2245.06
2245.08
2245.11
2245.14
2245.17
2245.19
2245.22
2245.25
2245.28
2245.3
2245.33
2245.36
2245.39
2245.41
2245.44
2245.47
2245.49
2245.52
2245.55
2245.58
2245.6
2245.63
2245.66
2245.69
2245.71
2245.74
2245.77
2245.79
2245.82
2245.85
2245.88
2245.9
2245.93
2245.96
2245.98
2246.01
2246.04
2246.07
2246.09
2246.12
2246.15
2246.18
2246.2
2246.23
2246.26
2246.28
2246.31
2246.34
2246.37
2246.39
2246.42
2246.45
2246.47
2246.5
2246.53
2246.55
2246.58
2246.61
2246.64
2246.66
2246.69
2246.72
2246.74
2246.77
2246.8
2246.83
2246.85
2246.88
2246.91
2246.93
2246.96
2246.99
2247.01
2247.04
2247.07
2247.1
2247.12
2247.15
2247.18
2247.2
2247.23
2247.26
2247.28
2247.31
2247.34
2247.36
2247.39
2247.42
2247.45
2247.47
2247.5
2247.53
2247.55
2247.58
2247.61
2247.63
2247.66
2247.69
2247.71
2247.74
2247.77
2247.79
2247.82
2247.85
2247.88
2247.9
2247.93
2247.96
2247.98
2248.01
2248.04
2248.06
2248.09
2248.12
2248.14
2248.17
2248.2
2248.22
2248.25
2248.28
2248.3
2248.33
2248.36
2248.38
2248.41
2248.44
2248.46
2248.49
2248.52
2248.54
2248.57
2248.6
2248.62
2248.65
2248.68
2248.7
2248.73
2248.76
2248.78
2248.81
2248.84
2248.86
2248.89
2248.92
2248.94
2248.97
2249
2249.02
2249.05
2249.08
2249.1
2249.13
2249.16
2249.18
2249.21
2249.23
2249.26
2249.29
2249.31
2249.34
2249.37
2249.39
2249.42
2249.45
2249.47
2249.5
2249.53
2249.55
2249.58
2249.61
2249.63
2249.66
2249.68
2249.71
2249.74
2249.76
2249.79
2249.82
2249.84
2249.87
2249.9
2249.92
2249.95
2249.97
2250
2250.03
2250.05
2250.08
2250.11
2250.13
2250.16
2250.19
2250.21
2250.24
2250.26
2250.29
2250.32
2250.34
2250.37
2250.4
2250.42
2250.45
2250.47
2250.5
2250.53
2250.55
2250.58
2250.61
2250.63
2250.66
2250.68
2250.71
2250.74
2250.76
2250.79
2250.81
2250.84
2250.87
2250.89
2250.92
2250.95
2250.97
2251
2251.02
2251.05
2251.08
2251.1
2251.13
2251.15
2251.18
2251.21
2251.23
2251.26
2251.28
2251.31
2251.34
2251.36
2251.39
2251.41
2251.44
2251.47
2251.49
2251.52
2251.54
2251.57
2251.6
2251.62
2251.65
2251.67
2251.7
2251.73
2251.75
2251.78
2251.8
2251.83
2251.86
2251.88
2251.91
2251.93
2251.96
2251.98
2252.01
2252.04
2252.06
2252.09
2252.11
2252.14
2252.17
2252.19
2252.22
2252.24
2252.27
2252.29
2252.32
2252.35
2252.37
2252.4
2252.42
2252.45
2252.47
2252.5
2252.53
2252.55
2252.58
2252.6
2252.63
2252.65
2252.68
2252.71
2252.73
2252.76
2252.78
2252.81
2252.83
2252.86
2252.89
2252.91
2252.94
2252.96
2252.99
2253.01
2253.04
2253.07
2253.09
2253.12
2253.14
2253.17
2253.19
2253.22
2253.24
2253.27
2253.3
2253.32
2253.35
2253.37
2253.4
2253.42
2253.45
2253.47
2253.5
2253.52
2253.55
2253.58
2253.6
2253.63
2253.65
2253.68
2253.7
2253.73
2253.75
2253.78
2253.8
2253.83
2253.85
2253.88
2253.91
2253.93
2253.96
2253.98
2254.01
2254.03
2254.06
2254.08
2254.11
2254.13
2254.16
2254.18
2254.21
2254.23
2254.26
2254.28
2254.31
2254.34
2254.36
2254.39
2254.41
2254.44
2254.46
2254.49
2254.51
2254.54
2254.56
2254.59
2254.61
2254.64
2254.66
2254.69
2254.71
2254.74
2254.76
2254.79
2254.81
2254.84
2254.86
2254.89
2254.91
2254.94
2254.96
2254.99
2255.01
2255.04
2255.06
2255.09
2255.11
2255.14
2255.16
2255.19
2255.21
2255.24
2255.26
2255.29
2255.31
2255.34
2255.36
2255.39
2255.41
2255.44
2255.46
2255.49
2255.51
2255.54
2255.56
2255.59
2255.61
2255.64
2255.66
2255.69
2255.71
2255.74
2255.76
2255.79
2255.81
2255.84
2255.86
2255.89
2255.91
2255.94
2255.96
2255.98
2256.01
2256.03
2256.06
2256.08
2256.11
2256.13
2256.16
2256.18
2256.21
2256.23
2256.26
2256.28
2256.31
2256.33
2256.35
2256.38
2256.4
2256.43
2256.45
2256.48
2256.5
2256.53
2256.55
2256.58
2256.6
2256.63
2256.65
2256.67
2256.7
2256.72
2256.75
2256.77
2256.8
2256.82
2256.85
2256.87
2256.89
2256.92
2256.94
2256.97
2256.99
2257.02
2257.04
2257.07
2257.09
2257.11
2257.14
2257.16
2257.19
2257.21
2257.24
2257.26
2257.28
2257.31
2257.33
2257.36
2257.38
2257.41
2257.43
2257.46
2257.48
2257.5
2257.53
2257.55
2257.58
2257.6
2257.62
2257.65
2257.67
2257.7
2257.72
2257.75
2257.77
2257.79
2257.82
2257.84
2257.87
2257.89
2257.91
2257.94
2257.96
2257.99
2258.01
2258.04
2258.06
2258.08
2258.11
2258.13
2258.16
2258.18
2258.2
2258.23
2258.25
2258.28
2258.3
2258.32
2258.35
2258.37
2258.4
2258.42
2258.44
2258.47
2258.49
2258.51
2258.54
2258.56
2258.59
2258.61
2258.63
2258.66
2258.68
2258.71
2258.73
2258.75
2258.78
2258.8
2258.82
2258.85
2258.87
2258.9
2258.92
2258.94
2258.97
2258.99
2259.01
2259.04
2259.06
2259.09
2259.11
2259.13
2259.16
2259.18
2259.2
2259.23
2259.25
2259.28
2259.3
2259.32
2259.35
2259.37
2259.39
2259.42
2259.44
2259.46
2259.49
2259.51
2259.53
2259.56
2259.58
2259.6
2259.63
2259.65
2259.68
2259.7
2259.72
2259.75
2259.77
2259.79
2259.82
2259.84
2259.86
2259.89
2259.91
2259.93
2259.96
2259.98
2260
2260.03
2260.05
2260.07
2260.1
2260.12
2260.14
2260.17
2260.19
2260.21
2260.24
2260.26
2260.28
2260.31
2260.33
2260.35
2260.38
2260.4
2260.42
2260.44
2260.47
2260.49
2260.51
2260.54
2260.56
2260.58
2260.61
2260.63
2260.65
2260.68
2260.7
2260.72
2260.75
2260.77
2260.79
2260.81
2260.84
2260.86
2260.88
2260.91
2260.93
2260.95
2260.98
2261
2261.02
2261.04
2261.07
2261.09
2261.11
2261.14
2261.16
2261.18
2261.2
2261.23
2261.25
2261.27
2261.3
2261.32
2261.34
2261.36
2261.39
2261.41
2261.43
2261.45
2261.48
2261.5
2261.52
2261.55
2261.57
2261.59
2261.61
2261.64
2261.66
2261.68
2261.7
2261.73
2261.75
2261.77
2261.79
2261.82
2261.84
2261.86
2261.88
2261.91
2261.93
2261.95
2261.97
2262
2262.02
2262.04
2262.06
2262.09
2262.11
2262.13
2262.15
2262.18
2262.2
2262.22
2262.24
2262.27
2262.29
2262.31
2262.33
2262.36
2262.38
2262.4
2262.42
2262.45
2262.47
2262.49
2262.51
2262.53
2262.56
2262.58
2262.6
2262.62
2262.65
2262.67
2262.69
2262.71
2262.73
2262.76
2262.78
2262.8
2262.82
2262.84
2262.87
2262.89
2262.91
2262.93
2262.95
2262.98
2263
2263.02
2263.04
2263.06
2263.09
2263.11
2263.13
2263.15
2263.17
2263.2
2263.22
2263.24
2263.26
2263.28
2263.31
2263.33
2263.35
2263.37
2263.39
2263.42
2263.44
2263.46
2263.48
2263.5
2263.52
2263.55
2263.57
2263.59
2263.61
2263.63
2263.65
2263.68
2263.7
2263.72
2263.74
2263.76
2263.78
2263.81
2263.83
2263.85
2263.87
2263.89
2263.91
2263.94
2263.96
2263.98
2264
2264.02
2264.04
2264.06
2264.09
2264.11
2264.13
2264.15
2264.17
2264.19
2264.21
2264.24
2264.26
2264.28
2264.3
2264.32
2264.34
2264.36
2264.38
2264.41
2264.43
2264.45
2264.47
2264.49
2264.51
2264.53
2264.55
2264.58
2264.6
2264.62
2264.64
2264.66
2264.68
2264.7
2264.72
2264.74
2264.77
2264.79
2264.81
2264.83
2264.85
2264.87
2264.89
2264.91
2264.93
2264.96
2264.98
2265
2265.02
2265.04
2265.06
2265.08
2265.1
2265.12
2265.14
2265.16
2265.18
2265.21
2265.23
2265.25
2265.27
2265.29
2265.31
2265.33
2265.35
2265.37
2265.39
2265.41
2265.43
2265.45
2265.47
2265.5
2265.52
2265.54
2265.56
2265.58
2265.6
2265.62
2265.64
2265.66
2265.68
2265.7
2265.72
2265.74
2265.76
2265.78
2265.8
2265.82
2265.84
2265.86
2265.89
2265.91
2265.93
2265.95
2265.97
2265.99
2266.01
2266.03
2266.05
2266.07
2266.09
2266.11
2266.13
2266.15
2266.17
2266.19
2266.21
2266.23
2266.25
2266.27
2266.29
2266.31
2266.33
2266.35
2266.37
2266.39
2266.41
2266.43
2266.45
2266.47
2266.49
2266.51
2266.53
2266.55
2266.57
2266.59
2266.61
2266.63
2266.65
2266.67
2266.69
2266.71
2266.73
2266.75
2266.77
2266.79
2266.81
2266.83
2266.85
2266.87
2266.89
2266.91
2266.93
2266.95
2266.97
2266.98
2267
2267.02
2267.04
2267.06
2267.08
2267.1
2267.12
2267.14
2267.16
2267.18
2267.2
2267.22
2267.24
2267.26
2267.28
2267.3
2267.32
2267.34
2267.35
2267.37
2267.39
2267.41
2267.43
2267.45
2267.47
2267.49
2267.51
2267.53
2267.55
2267.57
2267.59
2267.6
2267.62
2267.64
2267.66
2267.68
2267.7
2267.72
2267.74
2267.76
2267.78
2267.8
2267.81
2267.83
2267.85
2267.87
2267.89
2267.91
2267.93
2267.95
2267.97
2267.98
2268
2268.02
2268.04
2268.06
2268.08
2268.1
2268.12
2268.13
2268.15
2268.17
2268.19
2268.21
2268.23
2268.25
2268.26
2268.28
2268.3
2268.32
2268.34
2268.36
2268.38
2268.39
2268.41
2268.43
2268.45
2268.47
2268.49
2268.5
2268.52
2268.54
2268.56
2268.58
2268.6
2268.61
2268.63
2268.65
2268.67
2268.69
2268.71
2268.72
2268.74
2268.76
2268.78
2268.8
2268.81
2268.83
2268.85
2268.87
2268.89
2268.9
2268.92
2268.94
2268.96
2268.98
2268.99
2269.01
2269.03
2269.05
2269.07
2269.08
2269.1
2269.12
2269.14
2269.15
2269.17
2269.19
2269.21
2269.23
2269.24
2269.26
2269.28
2269.3
2269.31
2269.33
2269.35
2269.37
2269.38
2269.4
2269.42
2269.44
2269.45
2269.47
2269.49
2269.51
2269.52
2269.54
2269.56
2269.58
2269.59
2269.61
2269.63
2269.64
2269.66
2269.68
2269.7
2269.71
2269.73
2269.75
2269.76
2269.78
2269.8
2269.82
2269.83
2269.85
2269.87
2269.88
2269.9
2269.92
2269.93
2269.95
2269.97
2269.99
2270
2270.02
2270.04
2270.05
2270.07
2270.09
2270.1
2270.12
2270.14
2270.15
2270.17
2270.19
2270.2
2270.22
2270.24
2270.25
2270.27
2270.29
2270.3
2270.32
2270.33
2270.35
2270.37
2270.38
2270.4
2270.42
2270.43
2270.45
2270.47
2270.48
2270.5
2270.51
2270.53
2270.55
2270.56
2270.58
2270.59
2270.61
2270.63
2270.64
2270.66
2270.67
2270.69
2270.71
2270.72
2270.74
2270.75
2270.77
2270.79
2270.8
2270.82
2270.83
2270.85
2270.86
2270.88
2270.9
2270.91
2270.93
2270.94
2270.96
2270.97
2270.99
2271.01
2271.02
2271.04
2271.05
2271.07
2271.08
2271.1
2271.11
2271.13
2271.14
2271.16
2271.17
2271.19
2271.21
2271.22
2271.24
2271.25
2271.27
2271.28
2271.3
2271.31
2271.33
2271.34
2271.36
2271.37
2271.39
2271.4
2271.42
2271.43
2271.45
2271.46
2271.48
2271.49
2271.51
2271.52
2271.53
2271.55
2271.56
2271.58
2271.59
2271.61
2271.62
2271.64
2271.65
2271.67
2271.68
2271.69
2271.71
2271.72
2271.74
2271.75
2271.77
2271.78
2271.8
2271.81
2271.82
2271.84
2271.85
2271.87
2271.88
2271.89
2271.91
2271.92
2271.94
2271.95
2271.96
2271.98
2271.99
2272.01
2272.02
2272.03
2272.05
2272.06
2272.08
2272.09
2272.1
2272.12
2272.13
2272.14
2272.16
2272.17
2272.18
2272.2
2272.21
2272.23
2272.24
2272.25
2272.27
2272.28
2272.29
2272.31
2272.32
2272.33
2272.34
2272.36
2272.37
2272.38
2272.4
2272.41
2272.42
2272.44
2272.45
2272.46
2272.48
2272.49
2272.5
2272.51
2272.53
2272.54
2272.55
2272.57
2272.58
2272.59
2272.6
2272.62
2272.63
2272.64
2272.65
2272.67
2272.68
2272.69
2272.7
2272.72
2272.73
2272.74
2272.75
2272.76
2272.78
2272.79
2272.8
2272.81
2272.83
2272.84
2272.85
2272.86
2272.87
2272.89
2272.9
2272.91
2272.92
2272.93
2272.95
2272.96
2272.97
2272.98
2272.99
2273
2273.02
2273.03
2273.04
2273.05
2273.06
2273.07
2273.08
2273.1
2273.11
2273.12
2273.13
2273.14
2273.15
2273.16
2273.17
2273.19
2273.2
2273.21
2273.22
2273.23
2273.24
2273.25
2273.26
2273.27
2273.28
2273.29
2273.31
2273.32
2273.33
2273.34
2273.35
2273.36
2273.37
2273.38
2273.39
2273.4
2273.41
2273.42
2273.43
2273.44
2273.45
2273.46
2273.47
2273.48
2273.49
2273.5
2273.51
2273.52
2273.53
2273.54
2273.55
2273.56
2273.57
2273.58
2273.59
2273.6
2273.61
2273.62
2273.63
2273.64
2273.65
2273.66
2273.67
2273.68
2273.69
2273.7
2273.71
2273.71
2273.72
2273.73
2273.74
2273.75
2273.76
2273.77
2273.78
2273.79
2273.8
2273.8
2273.81
2273.82
2273.83
2273.84
2273.85
2273.86
2273.87
2273.87
2273.88
2273.89
2273.9
2273.91
2273.92
2273.92
2273.93
2273.94
2273.95
2273.96
2273.97
2273.97
2273.98
2273.99
2274
2274
2274.01
2274.02
2274.03
2274.04
2274.04
2274.05
2274.06
2274.07
2274.07
2274.08
2274.09
2274.1
2274.1
2274.11
2274.12
2274.12
2274.13
2274.14
2274.15
2274.15
2274.16
2274.17
2274.17
2274.18
2274.19
2274.19
2274.2
2274.21
2274.21
2274.22
2274.23
2274.23
2274.24
2274.24
2274.25
2274.26
2274.26
2274.27
2274.27
2274.28
2274.29
2274.29
2274.3
2274.3
2274.31
2274.32
2274.32
2274.33
2274.33
2274.34
2274.34
2274.35
2274.35
2274.36
2274.36
2274.37
2274.37
2274.38
2274.38
2274.39
2274.39
2274.4
2274.4
2274.41
2274.41
2274.42
2274.42
2274.43
2274.43
2274.44
2274.44
2274.44
2274.45
2274.45
2274.46
2274.46
2274.47
2274.47
2274.47
2274.48
2274.48
2274.48
2274.49
2274.49
2274.5
2274.5
2274.5
2274.51
2274.51
2274.51
2274.52
2274.52
2274.52
2274.52
2274.53
2274.53
2274.53
2274.54
2274.54
2274.54
2274.54
2274.55
2274.55
2274.55
2274.55
2274.56
2274.56
2274.56
2274.56
2274.56
2274.57
2274.57
2274.57
2274.57
2274.57
2274.57
2274.58
2274.58
2274.58
2274.58
2274.58
2274.58
2274.58
2274.58
2274.59
2274.59
2274.59
2274.59
2274.59
2274.59
2274.59
2274.59
2274.59
2274.59
2274.59
2274.59
2274.59
2274.59
2274.59
2274.59
2274.59
2274.59
2274.59
2274.59
2274.59
2274.59
2274.59
2274.59
2274.59
2274.59
2274.59
2274.58
2274.58
2274.58
2274.58
2274.58
2274.58
2274.58
2274.58
2274.57
2274.57
2274.57
2274.57
2274.57
2274.56
2274.56
2274.56
2274.56
2274.55
2274.55
2274.55
2274.55
2274.54
2274.54
2274.54
2274.54
2274.53
2274.53
2274.53
2274.52
2274.52
2274.52
2274.51
2274.51
2274.5
2274.5
2274.5
2274.49
2274.49
2274.48
2274.48
2274.47
2274.47
2274.47
2274.46
2274.46
2274.45
2274.45
2274.44
2274.43
2274.43
2274.42
2274.42
2274.41
2274.41
2274.4
2274.4
2274.39
2274.38
2274.38
2274.37
2274.36
2274.36
2274.35
2274.34
2274.34
2274.33
2274.32
2274.31
2274.31
2274.3
2274.29
2274.28
2274.28
2274.27
2274.26
2274.25
2274.24
2274.24
2274.23
2274.22
2274.21
2274.2
2274.19
2274.18
2274.17
2274.16
2274.15
2274.14
2274.13
2274.12
2274.11
2274.1
2274.09
2274.08
2274.07
2274.06
2274.05
2274.04
2274.03
2274.02
2274.01
2274
2273.98
2273.97
2273.96
2273.95
2273.94
2273.92
2273.91
2273.9
2273.89
2273.87
2273.86
2273.85
2273.83
2273.82
2273.81
2273.79
2273.78
2273.76
2273.75
2273.74
2273.72
2273.71
2273.69
2273.68
2273.66
2273.65
2273.63
2273.61
2273.6
2273.58
2273.57
2273.55
2273.53
2273.52
2273.5
2273.48
2273.47
2273.45
2273.43
2273.41
2273.4
2273.38
2273.36
2273.34
2273.32
2273.3
2273.28
2273.26
2273.24
2273.23
2273.21
2273.19
2273.17
2273.14
2273.12
2273.1
2273.08
2273.06
2273.04
2273.02
2273
2272.97
2272.95
2272.93
2272.91
2272.88
2272.86
2272.84
2272.81
2272.79
2272.77
2272.74
2272.72
2272.69
2272.67
2272.64
2272.62
2272.59
2272.56
2272.54
2272.51
2272.48
2272.46
2272.43
2272.4
2272.38
2272.35
2272.32
2272.29
2272.26
2272.23
2272.2
2272.17
2272.14
2272.11
2272.08
2272.05
2272.02
2271.99
2271.96
2271.93
2271.89
2271.86
2271.83
2271.8
2271.76
2271.73
2271.69
2271.66
2271.63
2271.59
2271.55
2271.52
2271.48
2271.45
2271.41
2271.37
2271.34
2271.3
2271.26
2271.22
2271.18
2271.14
2271.1
2271.06
2271.02
2270.98
2270.94
2270.9
2270.86
2270.81
2270.77
2270.73
2270.68
2270.64
2270.6
2270.55
2270.51
2270.46
2270.41
2270.37
2270.32
2270.27
2270.22
2270.18
2270.13
2270.08
2270.03
2269.98
2269.93
2269.87
2269.82
2269.77
2269.72
2269.66
2269.61
2269.56
2269.5
2269.44
2269.39
2269.33
2269.27
2269.22
2269.16
2269.1
2269.04
2268.98
2268.92
2268.86
2268.79
2268.73
2268.67
2268.6
2268.54
2268.47
2268.41
2268.34
2268.27
2268.21
2268.14
2268.07
2268
2267.93
2267.85
2267.78
2267.71
2267.63
2267.56
2267.48
2267.41
2267.33
2267.25
2267.17
2267.1
2267.02
2266.93
2266.85
2266.77
2266.69
2266.6
2266.52
2266.43
2266.34
2266.25
2266.17
2266.08
2265.99
2265.89
2265.8
2265.71
2265.61
2265.52
2265.42
2265.33
2265.23
2265.13
2265.03
2264.93
2264.83
2264.72
2264.62
2264.52
2264.41
2264.3
2264.2
2264.09
2263.98
2263.87
2263.76
2263.65
2263.53
2263.42
2263.31
2263.19
2263.08
2262.96
2262.84
2262.72
2262.61
2262.49
2262.37
2262.25
2262.12
2262
2261.88
2261.76
2261.63
2261.51
2261.39
2261.26
2261.14
2261.01
2260.89
2260.76
2260.64
2260.51
2260.39
2260.26
2260.14
2260.01
2259.89
2259.76
2259.64
2259.52
2259.39
2259.27
2259.15
2259.02
2258.9
2258.78
2258.66
2258.54
2258.42
2258.3
2258.19
2258.07
2257.95
2257.84
2257.72
2257.61
2257.5
2257.39
2257.28
2257.17
2257.06
2256.95
2256.85
2256.74
2256.64
2256.54
2256.43
2256.33
2256.23
2256.14
2256.04
2255.94
2255.85
2255.76
2255.66
2255.57
2255.48
2255.39
2255.3
2255.22
2255.13
2255.05
2254.96
2254.88
2254.8
2254.72
2254.64
2254.56
2254.49
2254.41
2254.33
2254.26
2254.19
2254.12
2254.04
2253.97
2253.91
2253.84
2253.77
2253.7
2253.64
2253.58
2253.51
2253.45
2253.39
2253.33
2253.27
2253.21
2253.15
2253.09
2253.04
2252.98
2252.93
2252.87
2252.82
2252.77
2252.71
2252.66
2252.61
2252.56
2252.51
2252.47
2252.42
2252.37
2252.33
2252.28
2252.24
2252.19
2252.15
2252.11
2252.06
2252.02
2251.98
2251.94
2251.9
2251.86
2251.82
2251.79
2251.75
2251.71
2251.68
2251.64
2251.6
2251.57
2251.54
2251.5
2251.47
2251.44
2251.4
2251.37
2251.34
2251.31
2251.28
2251.25
2251.22
2251.19
2251.17
2251.14
2251.11
2251.08
2251.06
2251.03
2251
2250.98
2250.95
2250.93
2250.91
2250.88
2250.86
2250.84
2250.81
2250.79
2250.77
2250.75
2250.73
2250.71
2250.69
2250.67
2250.65
2250.63
2250.61
2250.59
2250.57
2250.55
2250.54
2250.52
2250.5
2250.49
2250.47
2250.45
2250.44
2250.42
2250.41
2250.39
2250.38
2250.36
2250.35
2250.34
2250.32
2250.31
2250.3
2250.28
2250.27
2250.26
2250.25
2250.24
2250.22
2250.21
2250.2
2250.19
2250.18
2250.17
2250.16
2250.15
2250.14
2250.13
2250.13
2250.12
2250.11
2250.1
2250.09
2250.09
2250.08
2250.07
2250.06
2250.06
2250.05
2250.04
2250.04
2250.03
2250.03
2250.02
2250.02
2250.01
2250.01
2250
2250
2249.99
2249.99
2249.98
2249.98
2249.98
2249.97
2249.97
2249.97
2249.97
2249.96
2249.96
2249.96
2249.96
2249.95
2249.95
2249.95
2249.95
2249.95
2249.95
2249.95
2249.95
2249.94
2249.94
2249.94
2249.94
2249.94
2249.94
2249.94
2249.95
2249.95
2249.95
2249.95
2249.95
2249.95
2249.95
2249.95
2249.95
2249.96
2249.96
2249.96
2249.96
2249.97
2249.97
2249.97
2249.97
2249.98
2249.98
2249.98
2249.99
2249.99
2249.99
2250
2250
2250.01
2250.01
2250.01
2250.02
2250.02
2250.03
2250.03
2250.04
2250.04
2250.05
2250.05
2250.06
2250.06
2250.07
2250.07
2250.08
2250.09
2250.09
2250.1
2250.11
2250.11
2250.12
2250.12
2250.13
2250.14
2250.15
2250.15
2250.16
2250.17
2250.17
2250.18
2250.19
2250.2
2250.21
2250.21
2250.22
2250.23
2250.24
2250.25
2250.25
2250.26
2250.27
2250.28
2250.29
2250.3
2250.31
2250.32
2250.32
2250.33
2250.34
2250.35
2250.36
2250.37
2250.38
2250.39
2250.4
2250.41
2250.42
2250.43
2250.44
2250.45
2250.46
2250.47
2250.48
2250.49
2250.51
2250.52
2250.53
2250.54
2250.55
2250.56
2250.57
2250.58
2250.59
2250.61
2250.62
2250.63
2250.64
2250.65
2250.66
2250.68
2250.69
2250.7
2250.71
2250.73
2250.74
2250.75
2250.76
2250.78
2250.79
2250.8
2250.81
2250.83
2250.84
2250.85
2250.87
2250.88
2250.89
2250.91
2250.92
2250.93
2250.95
2250.96
2250.97
2250.99
2251
2251.01
2251.03
2251.04
2251.06
2251.07
2251.08
2251.1
2251.11
2251.13
2251.14
2251.16
2251.17
2251.19
2251.2
2251.22
2251.23
2251.25
2251.26
2251.28
2251.29
2251.31
2251.32
2251.34
2251.35
2251.37
2251.38
2251.4
2251.41
2251.43
2251.44
2251.46
2251.48
2251.49
2251.51
2251.52
2251.54
2251.56
2251.57
2251.59
2251.6
2251.62
2251.64
2251.65
2251.67
2251.69
2251.7
2251.72
2251.74
2251.75
2251.77
2251.79
2251.8
2251.82
2251.84
2251.85
2251.87
2251.89
2251.91
2251.92
2251.94
2251.96
2251.98
2251.99
2252.01
2252.03
2252.05
2252.06
2252.08
2252.1
2252.12
2252.13
2252.15
2252.17
2252.19
2252.21
2252.22
2252.24
2252.26
2252.28
2252.3
2252.32
2252.33
2252.35
2252.37
2252.39
2252.41
2252.43
2252.44
2252.46
2252.48
2252.5
2252.52
2252.54
2252.56
2252.58
2252.6
2252.61
2252.63
2252.65
2252.67
2252.69
2252.71
2252.73
2252.75
2252.77
2252.79
2252.81
2252.83
2252.85
2252.87
2252.89
2252.91
2252.93
2252.94
2252.96
2252.98
2253
2253.02
2253.04
2253.06
2253.08
2253.1
2253.12
2253.14
2253.16
2253.19
2253.21
2253.23
2253.25
2253.27
2253.29
2253.31
2253.33
2253.35
2253.37
2253.39
2253.41
2253.43
2253.45
2253.47
2253.49
2253.51
2253.53
2253.56
2253.58
2253.6
2253.62
2253.64
2253.66
2253.68
2253.7
2253.72
2253.75
2253.77
2253.79
2253.81
2253.83
2253.85
2253.87
2253.89
2253.92
2253.94
2253.96
2253.98
2254
2254.02
2254.05
2254.07
2254.09
2254.11
2254.13
2254.15
2254.18
2254.2
2254.22
2254.24
2254.26
2254.29
2254.31
2254.33
2254.35
2254.38
2254.4
2254.42
2254.44
2254.46
2254.49
2254.51
2254.53
2254.55
2254.58
2254.6
2254.62
2254.64
2254.67
2254.69
2254.71
2254.73
2254.76
2254.78
2254.8
2254.83
2254.85
2254.87
2254.89
2254.92
2254.94
2254.96
2254.99
2255.01
2255.03
2255.05
2255.08
2255.1
2255.12
2255.15
2255.17
2255.19
2255.22
2255.24
2255.26
2255.29
2255.31
2255.33
2255.36
2255.38
2255.4
2255.43
2255.45
2255.47
2255.5
2255.52
2255.55
2255.57
2255.59
2255.62
2255.64
2255.66
2255.69
2255.71
2255.74
2255.76
2255.78
2255.81
2255.83
2255.85
2255.88
2255.9
2255.93
2255.95
2255.98
2256
2256.02
2256.05
2256.07
2256.1
2256.12
2256.14
2256.17
2256.19
2256.22
2256.24
2256.27
2256.29
2256.32
2256.34
2256.36
2256.39
2256.41
2256.44
2256.46
2256.49
2256.51
2256.54
2256.56
2256.59
2256.61
2256.64
2256.66
2256.68
2256.71
2256.73
2256.76
2256.78
2256.81
2256.83
2256.86
2256.88
2256.91
2256.93
2256.96
2256.98
2257.01
2257.03
2257.06
2257.08
2257.11
2257.14
2257.16
2257.19
2257.21
2257.24
2257.26
2257.29
2257.31
2257.34
2257.36
2257.39
2257.41
2257.44
2257.46
2257.49
2257.52
2257.54
2257.57
2257.59
2257.62
2257.64
2257.67
2257.69
2257.72
2257.75
2257.77
2257.8
2257.82
2257.85
2257.88
2257.9
2257.93
2257.95
2257.98
2258
2258.03
2258.06
2258.08
2258.11
2258.13
2258.16
2258.19
2258.21
2258.24
2258.26
2258.29
2258.32
2258.34
2258.37
2258.4
2258.42
2258.45
2258.47
2258.5
2258.53
2258.55
2258.58
2258.61
2258.63
2258.66
2258.68
2258.71
2258.74
2258.76
2258.79
2258.82
2258.84
2258.87
2258.9
2258.92
2258.95
2258.98
2259
2259.03
2259.06
2259.08
2259.11
2259.14
2259.16
2259.19
2259.22
2259.24
2259.27
2259.3
2259.32
2259.35
2259.38
2259.4
2259.43
2259.46
2259.49
2259.51
2259.54
2259.57
2259.59
2259.62
2259.65
2259.67
2259.7
2259.73
2259.76
2259.78
2259.81
2259.84
2259.86
2259.89
2259.92
2259.95
2259.97
2260
2260.03
2260.05
2260.08
2260.11
2260.14
2260.16
2260.19
2260.22
2260.25
2260.27
2260.3
2260.33
2260.36
2260.38
2260.41
2260.44
2260.47
2260.49
2260.52
2260.55
2260.58
2260.6
2260.63
2260.66
2260.69
2260.71
2260.74
2260.77
2260.8
2260.82
2260.85
2260.88
2260.91
2260.94
2260.96
2260.99
2261.02
2261.05
2261.07
2261.1
2261.13
2261.16
2261.19
2261.21
2261.24
2261.27
2261.3
2261.33
2261.35
2261.38
2261.41
2261.44
2261.47
2261.49
2261.52
2261.55
2261.58
2261.61
2261.63
2261.66
2261.69
2261.72
2261.75
2261.78
2261.8
2261.83
2261.86
2261.89
2261.92
2261.94
2261.97
2262
2262.03
2262.06
2262.09
2262.11
2262.14
2262.17
2262.2
2262.23