/*--------------------------------*- C++ -*----------------------------------*\
| =========                 |                                                 |
| \\      /  F ield         | OpenFOAM: The Open Source CFD Toolbox           |
|  \\    /   O peration     | Version:  2.4.0                                 |
|   \\  /    A nd           | Web:      www.OpenFOAM.org                      |
|    \\/     M anipulation  |                                                 |
\*---------------------------------------------------------------------------*/
FoamFile
{
    version     2.0;
    format      ascii;
    class       volScalarField;
    location    "1e-06";
    object      thermo:kappa;
}
// * * * * * * * * * * * * * * * * * * * * * * * * * * * * * * * * * * * * * //

dimensions      [1 1 -3 -1 0 0 0];

internalField   nonuniform List<scalar> 
10000
(
0.0938562
0.093849
0.0938419
0.0938347
0.0938276
0.0938204
0.0938133
0.0938061
0.0937989
0.0937918
0.0937846
0.0937774
0.0937703
0.0937631
0.0937559
0.0937488
0.0937416
0.0937344
0.0937272
0.0937201
0.0937129
0.0937057
0.0936985
0.0936914
0.0936842
0.093677
0.0936698
0.0936626
0.0936554
0.0936483
0.0936411
0.0936339
0.0936267
0.0936195
0.0936123
0.0936051
0.0935979
0.0935907
0.0935835
0.0935763
0.0935691
0.0935619
0.0935547
0.0935475
0.0935403
0.0935331
0.0935259
0.0935187
0.0935115
0.0935043
0.0934971
0.0934898
0.0934826
0.0934754
0.0934682
0.093461
0.0934538
0.0934465
0.0934393
0.0934321
0.0934249
0.0934176
0.0934104
0.0934032
0.093396
0.0933887
0.0933815
0.0933743
0.093367
0.0933598
0.0933526
0.0933453
0.0933381
0.0933308
0.0933236
0.0933164
0.0933091
0.0933019
0.0932946
0.0932874
0.0932801
0.0932729
0.0932656
0.0932584
0.0932511
0.0932439
0.0932366
0.0932294
0.0932221
0.0932149
0.0932076
0.0932003
0.0931931
0.0931858
0.0931785
0.0931713
0.093164
0.0931567
0.0931495
0.0931422
0.0931349
0.0931277
0.0931204
0.0931131
0.0931058
0.0930986
0.0930913
0.093084
0.0930767
0.0930694
0.0930621
0.0930549
0.0930476
0.0930403
0.093033
0.0930257
0.0930184
0.0930111
0.0930038
0.0929965
0.0929892
0.0929819
0.0929746
0.0929673
0.09296
0.0929527
0.0929454
0.0929381
0.0929308
0.0929235
0.0929162
0.0929089
0.0929016
0.0928943
0.092887
0.0928796
0.0928723
0.092865
0.0928577
0.0928504
0.092843
0.0928357
0.0928284
0.0928211
0.0928138
0.0928064
0.0927991
0.0927918
0.0927844
0.0927771
0.0927698
0.0927624
0.0927551
0.0927478
0.0927404
0.0927331
0.0927257
0.0927184
0.0927111
0.0927037
0.0926964
0.092689
0.0926817
0.0926743
0.092667
0.0926596
0.0926523
0.0926449
0.0926375
0.0926302
0.0926228
0.0926155
0.0926081
0.0926007
0.0925934
0.092586
0.0925787
0.0925713
0.0925639
0.0925565
0.0925492
0.0925418
0.0925344
0.0925271
0.0925197
0.0925123
0.0925049
0.0924975
0.0924902
0.0924828
0.0924754
0.092468
0.0924606
0.0924532
0.0924458
0.0924384
0.0924311
0.0924237
0.0924163
0.0924089
0.0924015
0.0923941
0.0923867
0.0923793
0.0923719
0.0923645
0.0923571
0.0923497
0.0923423
0.0923348
0.0923274
0.09232
0.0923126
0.0923052
0.0922978
0.0922904
0.0922829
0.0922755
0.0922681
0.0922607
0.0922533
0.0922458
0.0922384
0.092231
0.0922236
0.0922161
0.0922087
0.0922013
0.0921938
0.0921864
0.092179
0.0921715
0.0921641
0.0921566
0.0921492
0.0921418
0.0921343
0.0921269
0.0921194
0.092112
0.0921045
0.0920971
0.0920896
0.0920822
0.0920747
0.0920673
0.0920598
0.0920524
0.0920449
0.0920374
0.09203
0.0920225
0.092015
0.0920076
0.0920001
0.0919926
0.0919852
0.0919777
0.0919702
0.0919628
0.0919553
0.0919478
0.0919403
0.0919328
0.0919254
0.0919179
0.0919104
0.0919029
0.0918954
0.0918879
0.0918805
0.091873
0.0918655
0.091858
0.0918505
0.091843
0.0918355
0.091828
0.0918205
0.091813
0.0918055
0.091798
0.0917905
0.091783
0.0917755
0.091768
0.0917605
0.0917529
0.0917454
0.0917379
0.0917304
0.0917229
0.0917154
0.0917078
0.0917003
0.0916928
0.0916853
0.0916778
0.0916702
0.0916627
0.0916552
0.0916476
0.0916401
0.0916326
0.091625
0.0916175
0.09161
0.0916024
0.0915949
0.0915873
0.0915798
0.0915723
0.0915647
0.0915572
0.0915496
0.0915421
0.0915345
0.091527
0.0915194
0.0915119
0.0915043
0.0914967
0.0914892
0.0914816
0.0914741
0.0914665
0.0914589
0.0914514
0.0914438
0.0914362
0.0914287
0.0914211
0.0914135
0.0914059
0.0913984
0.0913908
0.0913832
0.0913756
0.0913681
0.0913605
0.0913529
0.0913453
0.0913377
0.0913301
0.0913225
0.0913149
0.0913074
0.0912998
0.0912922
0.0912846
0.091277
0.0912694
0.0912618
0.0912542
0.0912466
0.091239
0.0912314
0.0912237
0.0912161
0.0912085
0.0912009
0.0911933
0.0911857
0.0911781
0.0911705
0.0911628
0.0911552
0.0911476
0.09114
0.0911323
0.0911247
0.0911171
0.0911095
0.0911018
0.0910942
0.0910866
0.0910789
0.0910713
0.0910637
0.091056
0.0910484
0.0910407
0.0910331
0.0910255
0.0910178
0.0910102
0.0910025
0.0909949
0.0909872
0.0909796
0.0909719
0.0909642
0.0909566
0.0909489
0.0909413
0.0909336
0.0909259
0.0909183
0.0909106
0.090903
0.0908953
0.0908876
0.0908799
0.0908723
0.0908646
0.0908569
0.0908492
0.0908416
0.0908339
0.0908262
0.0908185
0.0908108
0.0908031
0.0907955
0.0907878
0.0907801
0.0907724
0.0907647
0.090757
0.0907493
0.0907416
0.0907339
0.0907262
0.0907185
0.0907108
0.0907031
0.0906954
0.0906877
0.09068
0.0906723
0.0906646
0.0906568
0.0906491
0.0906414
0.0906337
0.090626
0.0906182
0.0906105
0.0906028
0.0905951
0.0905873
0.0905796
0.0905719
0.0905642
0.0905564
0.0905487
0.090541
0.0905332
0.0905255
0.0905177
0.09051
0.0905023
0.0904945
0.0904868
0.090479
0.0904713
0.0904635
0.0904558
0.090448
0.0904403
0.0904325
0.0904247
0.090417
0.0904092
0.0904015
0.0903937
0.0903859
0.0903782
0.0903704
0.0903626
0.0903549
0.0903471
0.0903393
0.0903315
0.0903238
0.090316
0.0903082
0.0903004
0.0902926
0.0902848
0.0902771
0.0902693
0.0902615
0.0902537
0.0902459
0.0902381
0.0902303
0.0902225
0.0902147
0.0902069
0.0901991
0.0901913
0.0901835
0.0901757
0.0901679
0.0901601
0.0901523
0.0901445
0.0901366
0.0901288
0.090121
0.0901132
0.0901054
0.0900976
0.0900897
0.0900819
0.0900741
0.0900662
0.0900584
0.0900506
0.0900428
0.0900349
0.0900271
0.0900193
0.0900114
0.0900036
0.0899957
0.0899879
0.08998
0.0899722
0.0899644
0.0899565
0.0899487
0.0899408
0.0899329
0.0899251
0.0899172
0.0899094
0.0899015
0.0898937
0.0898858
0.0898779
0.0898701
0.0898622
0.0898543
0.0898465
0.0898386
0.0898307
0.0898228
0.089815
0.0898071
0.0897992
0.0897913
0.0897834
0.0897755
0.0897677
0.0897598
0.0897519
0.089744
0.0897361
0.0897282
0.0897203
0.0897124
0.0897045
0.0896966
0.0896887
0.0896808
0.0896729
0.089665
0.0896571
0.0896492
0.0896413
0.0896333
0.0896254
0.0896175
0.0896096
0.0896017
0.0895938
0.0895858
0.0895779
0.08957
0.0895621
0.0895541
0.0895462
0.0895383
0.0895303
0.0895224
0.0895145
0.0895065
0.0894986
0.0894906
0.0894827
0.0894747
0.0894668
0.0894589
0.0894509
0.0894429
0.089435
0.089427
0.0894191
0.0894111
0.0894032
0.0893952
0.0893872
0.0893793
0.0893713
0.0893633
0.0893554
0.0893474
0.0893394
0.0893315
0.0893235
0.0893155
0.0893075
0.0892995
0.0892916
0.0892836
0.0892756
0.0892676
0.0892596
0.0892516
0.0892436
0.0892356
0.0892276
0.0892196
0.0892116
0.0892036
0.0891956
0.0891876
0.0891796
0.0891716
0.0891636
0.0891556
0.0891476
0.0891396
0.0891316
0.0891235
0.0891155
0.0891075
0.0890995
0.0890915
0.0890834
0.0890754
0.0890674
0.0890593
0.0890513
0.0890433
0.0890352
0.0890272
0.0890192
0.0890111
0.0890031
0.088995
0.088987
0.088979
0.0889709
0.0889629
0.0889548
0.0889467
0.0889387
0.0889306
0.0889226
0.0889145
0.0889065
0.0888984
0.0888903
0.0888823
0.0888742
0.0888661
0.088858
0.08885
0.0888419
0.0888338
0.0888257
0.0888177
0.0888096
0.0888015
0.0887934
0.0887853
0.0887772
0.0887691
0.088761
0.088753
0.0887449
0.0887368
0.0887287
0.0887206
0.0887125
0.0887043
0.0886962
0.0886881
0.08868
0.0886719
0.0886638
0.0886557
0.0886476
0.0886395
0.0886313
0.0886232
0.0886151
0.088607
0.0885988
0.0885907
0.0885826
0.0885744
0.0885663
0.0885582
0.08855
0.0885419
0.0885338
0.0885256
0.0885175
0.0885093
0.0885012
0.088493
0.0884849
0.0884767
0.0884686
0.0884604
0.0884522
0.0884441
0.0884359
0.0884278
0.0884196
0.0884114
0.0884033
0.0883951
0.0883869
0.0883787
0.0883706
0.0883624
0.0883542
0.088346
0.0883378
0.0883297
0.0883215
0.0883133
0.0883051
0.0882969
0.0882887
0.0882805
0.0882723
0.0882641
0.0882559
0.0882477
0.0882395
0.0882313
0.0882231
0.0882149
0.0882067
0.0881985
0.0881902
0.088182
0.0881738
0.0881656
0.0881574
0.0881491
0.0881409
0.0881327
0.0881245
0.0881162
0.088108
0.0880998
0.0880915
0.0880833
0.0880751
0.0880668
0.0880586
0.0880503
0.0880421
0.0880338
0.0880256
0.0880173
0.0880091
0.0880008
0.0879925
0.0879843
0.087976
0.0879678
0.0879595
0.0879512
0.087943
0.0879347
0.0879264
0.0879181
0.0879099
0.0879016
0.0878933
0.087885
0.0878767
0.0878685
0.0878602
0.0878519
0.0878436
0.0878353
0.087827
0.0878187
0.0878104
0.0878021
0.0877938
0.0877855
0.0877772
0.0877689
0.0877606
0.0877523
0.0877439
0.0877356
0.0877273
0.087719
0.0877107
0.0877024
0.087694
0.0876857
0.0876774
0.087669
0.0876607
0.0876524
0.087644
0.0876357
0.0876274
0.087619
0.0876107
0.0876023
0.087594
0.0875856
0.0875773
0.0875689
0.0875606
0.0875522
0.0875439
0.0875355
0.0875271
0.0875188
0.0875104
0.087502
0.0874937
0.0874853
0.0874769
0.0874685
0.0874602
0.0874518
0.0874434
0.087435
0.0874266
0.0874183
0.0874099
0.0874015
0.0873931
0.0873847
0.0873763
0.0873679
0.0873595
0.0873511
0.0873427
0.0873343
0.0873259
0.0873175
0.087309
0.0873006
0.0872922
0.0872838
0.0872754
0.087267
0.0872585
0.0872501
0.0872417
0.0872333
0.0872248
0.0872164
0.087208
0.0871995
0.0871911
0.0871826
0.0871742
0.0871657
0.0871573
0.0871488
0.0871404
0.0871319
0.0871235
0.087115
0.0871066
0.0870981
0.0870896
0.0870812
0.0870727
0.0870642
0.0870558
0.0870473
0.0870388
0.0870304
0.0870219
0.0870134
0.0870049
0.0869964
0.0869879
0.0869795
0.086971
0.0869625
0.086954
0.0869455
0.086937
0.0869285
0.08692
0.0869115
0.086903
0.0868945
0.0868859
0.0868774
0.0868689
0.0868604
0.0868519
0.0868434
0.0868348
0.0868263
0.0868178
0.0868093
0.0868007
0.0867922
0.0867837
0.0867751
0.0867666
0.086758
0.0867495
0.086741
0.0867324
0.0867239
0.0867153
0.0867068
0.0866982
0.0866896
0.0866811
0.0866725
0.086664
0.0866554
0.0866468
0.0866383
0.0866297
0.0866211
0.0866125
0.086604
0.0865954
0.0865868
0.0865782
0.0865696
0.086561
0.0865525
0.0865439
0.0865353
0.0865267
0.0865181
0.0865095
0.0865009
0.0864923
0.0864837
0.0864751
0.0864664
0.0864578
0.0864492
0.0864406
0.086432
0.0864234
0.0864147
0.0864061
0.0863975
0.0863888
0.0863802
0.0863716
0.0863629
0.0863543
0.0863457
0.086337
0.0863284
0.0863197
0.0863111
0.0863024
0.0862938
0.0862851
0.0862765
0.0862678
0.0862592
0.0862505
0.0862418
0.0862332
0.0862245
0.0862158
0.0862071
0.0861985
0.0861898
0.0861811
0.0861724
0.0861637
0.0861551
0.0861464
0.0861377
0.086129
0.0861203
0.0861116
0.0861029
0.0860942
0.0860855
0.0860768
0.0860681
0.0860594
0.0860506
0.0860419
0.0860332
0.0860245
0.0860158
0.086007
0.0859983
0.0859896
0.0859809
0.0859721
0.0859634
0.0859547
0.0859459
0.0859372
0.0859284
0.0859197
0.0859109
0.0859022
0.0858934
0.0858847
0.0858759
0.0858672
0.0858584
0.0858496
0.0858409
0.0858321
0.0858233
0.0858146
0.0858058
0.085797
0.0857882
0.0857795
0.0857707
0.0857619
0.0857531
0.0857443
0.0857355
0.0857267
0.0857179
0.0857091
0.0857003
0.0856915
0.0856827
0.0856739
0.0856651
0.0856563
0.0856475
0.0856387
0.0856298
0.085621
0.0856122
0.0856034
0.0855945
0.0855857
0.0855769
0.0855681
0.0855592
0.0855504
0.0855415
0.0855327
0.0855238
0.085515
0.0855061
0.0854973
0.0854884
0.0854796
0.0854707
0.0854619
0.085453
0.0854441
0.0854353
0.0854264
0.0854175
0.0854086
0.0853998
0.0853909
0.085382
0.0853731
0.0853642
0.0853553
0.0853464
0.0853376
0.0853287
0.0853198
0.0853109
0.085302
0.085293
0.0852841
0.0852752
0.0852663
0.0852574
0.0852485
0.0852396
0.0852306
0.0852217
0.0852128
0.0852039
0.0851949
0.085186
0.0851771
0.0851681
0.0851592
0.0851502
0.0851413
0.0851323
0.0851234
0.0851144
0.0851055
0.0850965
0.0850876
0.0850786
0.0850696
0.0850607
0.0850517
0.0850427
0.0850338
0.0850248
0.0850158
0.0850068
0.0849978
0.0849889
0.0849799
0.0849709
0.0849619
0.0849529
0.0849439
0.0849349
0.0849259
0.0849169
0.0849079
0.0848989
0.0848898
0.0848808
0.0848718
0.0848628
0.0848538
0.0848447
0.0848357
0.0848267
0.0848177
0.0848086
0.0847996
0.0847905
0.0847815
0.0847725
0.0847634
0.0847544
0.0847453
0.0847363
0.0847272
0.0847181
0.0847091
0.0847
0.084691
0.0846819
0.0846728
0.0846637
0.0846547
0.0846456
0.0846365
0.0846274
0.0846183
0.0846092
0.0846002
0.0845911
0.084582
0.0845729
0.0845638
0.0845547
0.0845456
0.0845364
0.0845273
0.0845182
0.0845091
0.0845
0.0844909
0.0844817
0.0844726
0.0844635
0.0844544
0.0844452
0.0844361
0.0844269
0.0844178
0.0844087
0.0843995
0.0843904
0.0843812
0.0843721
0.0843629
0.0843537
0.0843446
0.0843354
0.0843263
0.0843171
0.0843079
0.0842987
0.0842896
0.0842804
0.0842712
0.084262
0.0842528
0.0842436
0.0842344
0.0842253
0.0842161
0.0842069
0.0841977
0.0841884
0.0841792
0.08417
0.0841608
0.0841516
0.0841424
0.0841332
0.0841239
0.0841147
0.0841055
0.0840962
0.084087
0.0840778
0.0840685
0.0840593
0.0840501
0.0840408
0.0840316
0.0840223
0.084013
0.0840038
0.0839945
0.0839853
0.083976
0.0839667
0.0839575
0.0839482
0.0839389
0.0839296
0.0839204
0.0839111
0.0839018
0.0838925
0.0838832
0.0838739
0.0838646
0.0838553
0.083846
0.0838367
0.0838274
0.0838181
0.0838088
0.0837994
0.0837901
0.0837808
0.0837715
0.0837622
0.0837528
0.0837435
0.0837342
0.0837248
0.0837155
0.0837061
0.0836968
0.0836874
0.0836781
0.0836687
0.0836594
0.08365
0.0836407
0.0836313
0.0836219
0.0836126
0.0836032
0.0835938
0.0835844
0.083575
0.0835657
0.0835563
0.0835469
0.0835375
0.0835281
0.0835187
0.0835093
0.0834999
0.0834905
0.0834811
0.0834717
0.0834622
0.0834528
0.0834434
0.083434
0.0834246
0.0834151
0.0834057
0.0833963
0.0833868
0.0833774
0.0833679
0.0833585
0.083349
0.0833396
0.0833301
0.0833207
0.0833112
0.0833018
0.0832923
0.0832828
0.0832733
0.0832639
0.0832544
0.0832449
0.0832354
0.0832259
0.0832165
0.083207
0.0831975
0.083188
0.0831785
0.083169
0.0831595
0.08315
0.0831404
0.0831309
0.0831214
0.0831119
0.0831024
0.0830928
0.0830833
0.0830738
0.0830642
0.0830547
0.0830452
0.0830356
0.0830261
0.0830165
0.083007
0.0829974
0.0829879
0.0829783
0.0829687
0.0829592
0.0829496
0.08294
0.0829304
0.0829209
0.0829113
0.0829017
0.0828921
0.0828825
0.0828729
0.0828633
0.0828537
0.0828441
0.0828345
0.0828249
0.0828153
0.0828057
0.0827961
0.0827865
0.0827768
0.0827672
0.0827576
0.0827479
0.0827383
0.0827287
0.082719
0.0827094
0.0826997
0.0826901
0.0826804
0.0826708
0.0826611
0.0826514
0.0826418
0.0826321
0.0826224
0.0826128
0.0826031
0.0825934
0.0825837
0.082574
0.0825643
0.0825546
0.082545
0.0825353
0.0825256
0.0825158
0.0825061
0.0824964
0.0824867
0.082477
0.0824673
0.0824575
0.0824478
0.0824381
0.0824284
0.0824186
0.0824089
0.0823991
0.0823894
0.0823796
0.0823699
0.0823601
0.0823504
0.0823406
0.0823308
0.0823211
0.0823113
0.0823015
0.0822918
0.082282
0.0822722
0.0822624
0.0822526
0.0822428
0.082233
0.0822232
0.0822134
0.0822036
0.0821938
0.082184
0.0821742
0.0821644
0.0821545
0.0821447
0.0821349
0.082125
0.0821152
0.0821054
0.0820955
0.0820857
0.0820758
0.082066
0.0820561
0.0820463
0.0820364
0.0820265
0.0820167
0.0820068
0.0819969
0.0819871
0.0819772
0.0819673
0.0819574
0.0819475
0.0819376
0.0819277
0.0819178
0.0819079
0.081898
0.0818881
0.0818782
0.0818683
0.0818584
0.0818484
0.0818385
0.0818286
0.0818186
0.0818087
0.0817988
0.0817888
0.0817789
0.0817689
0.081759
0.081749
0.0817391
0.0817291
0.0817191
0.0817092
0.0816992
0.0816892
0.0816792
0.0816692
0.0816592
0.0816493
0.0816393
0.0816293
0.0816193
0.0816093
0.0815993
0.0815892
0.0815792
0.0815692
0.0815592
0.0815492
0.0815391
0.0815291
0.0815191
0.081509
0.081499
0.0814889
0.0814789
0.0814688
0.0814588
0.0814487
0.0814387
0.0814286
0.0814185
0.0814085
0.0813984
0.0813883
0.0813782
0.0813681
0.081358
0.0813479
0.0813378
0.0813277
0.0813176
0.0813075
0.0812974
0.0812873
0.0812772
0.0812671
0.0812569
0.0812468
0.0812367
0.0812265
0.0812164
0.0812063
0.0811961
0.081186
0.0811758
0.0811656
0.0811555
0.0811453
0.0811351
0.081125
0.0811148
0.0811046
0.0810944
0.0810842
0.0810741
0.0810639
0.0810537
0.0810435
0.0810333
0.081023
0.0810128
0.0810026
0.0809924
0.0809822
0.0809719
0.0809617
0.0809515
0.0809412
0.080931
0.0809208
0.0809105
0.0809003
0.08089
0.0808797
0.0808695
0.0808592
0.0808489
0.0808387
0.0808284
0.0808181
0.0808078
0.0807975
0.0807872
0.0807769
0.0807666
0.0807563
0.080746
0.0807357
0.0807254
0.0807151
0.0807047
0.0806944
0.0806841
0.0806737
0.0806634
0.0806531
0.0806427
0.0806324
0.080622
0.0806117
0.0806013
0.0805909
0.0805806
0.0805702
0.0805598
0.0805494
0.080539
0.0805287
0.0805183
0.0805079
0.0804975
0.0804871
0.0804767
0.0804662
0.0804558
0.0804454
0.080435
0.0804246
0.0804141
0.0804037
0.0803932
0.0803828
0.0803724
0.0803619
0.0803514
0.080341
0.0803305
0.0803201
0.0803096
0.0802991
0.0802886
0.0802781
0.0802677
0.0802572
0.0802467
0.0802362
0.0802257
0.0802152
0.0802047
0.0801941
0.0801836
0.0801731
0.0801626
0.080152
0.0801415
0.080131
0.0801204
0.0801099
0.0800993
0.0800888
0.0800782
0.0800676
0.0800571
0.0800465
0.0800359
0.0800254
0.0800148
0.0800042
0.0799936
0.079983
0.0799724
0.0799618
0.0799512
0.0799406
0.0799299
0.0799193
0.0799087
0.0798981
0.0798874
0.0798768
0.0798662
0.0798555
0.0798449
0.0798342
0.0798235
0.0798129
0.0798022
0.0797915
0.0797809
0.0797702
0.0797595
0.0797488
0.0797381
0.0797274
0.0797167
0.079706
0.0796953
0.0796846
0.0796739
0.0796632
0.0796524
0.0796417
0.079631
0.0796202
0.0796095
0.0795987
0.079588
0.0795772
0.0795665
0.0795557
0.0795449
0.0795341
0.0795234
0.0795126
0.0795018
0.079491
0.0794802
0.0794694
0.0794586
0.0794478
0.079437
0.0794262
0.0794153
0.0794045
0.0793937
0.0793828
0.079372
0.0793612
0.0793503
0.0793395
0.0793286
0.0793177
0.0793069
0.079296
0.0792851
0.0792742
0.0792634
0.0792525
0.0792416
0.0792307
0.0792198
0.0792089
0.0791979
0.079187
0.0791761
0.0791652
0.0791543
0.0791433
0.0791324
0.0791214
0.0791105
0.0790995
0.0790886
0.0790776
0.0790666
0.0790557
0.0790447
0.0790337
0.0790227
0.0790117
0.0790007
0.0789897
0.0789787
0.0789677
0.0789567
0.0789457
0.0789347
0.0789236
0.0789126
0.0789016
0.0788905
0.0788795
0.0788684
0.0788574
0.0788463
0.0788352
0.0788242
0.0788131
0.078802
0.0787909
0.0787798
0.0787688
0.0787577
0.0787466
0.0787354
0.0787243
0.0787132
0.0787021
0.078691
0.0786798
0.0786687
0.0786575
0.0786464
0.0786352
0.0786241
0.0786129
0.0786018
0.0785906
0.0785794
0.0785682
0.078557
0.0785458
0.0785347
0.0785235
0.0785122
0.078501
0.0784898
0.0784786
0.0784674
0.0784561
0.0784449
0.0784337
0.0784224
0.0784112
0.0783999
0.0783886
0.0783774
0.0783661
0.0783548
0.0783435
0.0783323
0.078321
0.0783097
0.0782984
0.0782871
0.0782757
0.0782644
0.0782531
0.0782418
0.0782304
0.0782191
0.0782078
0.0781964
0.0781851
0.0781737
0.0781623
0.078151
0.0781396
0.0781282
0.0781168
0.0781054
0.078094
0.0780826
0.0780712
0.0780598
0.0780484
0.078037
0.0780256
0.0780141
0.0780027
0.0779913
0.0779798
0.0779684
0.0779569
0.0779454
0.077934
0.0779225
0.077911
0.0778995
0.077888
0.0778765
0.077865
0.0778535
0.077842
0.0778305
0.077819
0.0778074
0.0777959
0.0777844
0.0777728
0.0777613
0.0777497
0.0777382
0.0777266
0.077715
0.0777034
0.0776919
0.0776803
0.0776687
0.0776571
0.0776455
0.0776339
0.0776222
0.0776106
0.077599
0.0775874
0.0775757
0.0775641
0.0775524
0.0775408
0.0775291
0.0775174
0.0775058
0.0774941
0.0774824
0.0774707
0.077459
0.0774473
0.0774356
0.0774239
0.0774122
0.0774004
0.0773887
0.077377
0.0773652
0.0773535
0.0773417
0.07733
0.0773182
0.0773064
0.0772947
0.0772829
0.0772711
0.0772593
0.0772475
0.0772357
0.0772239
0.0772121
0.0772002
0.0771884
0.0771766
0.0771647
0.0771529
0.077141
0.0771292
0.0771173
0.0771054
0.0770936
0.0770817
0.0770698
0.0770579
0.077046
0.0770341
0.0770222
0.0770102
0.0769983
0.0769864
0.0769745
0.0769625
0.0769506
0.0769386
0.0769266
0.0769147
0.0769027
0.0768907
0.0768787
0.0768667
0.0768547
0.0768427
0.0768307
0.0768187
0.0768067
0.0767946
0.0767826
0.0767706
0.0767585
0.0767465
0.0767344
0.0767223
0.0767103
0.0766982
0.0766861
0.076674
0.0766619
0.0766498
0.0766377
0.0766256
0.0766134
0.0766013
0.0765892
0.076577
0.0765649
0.0765527
0.0765405
0.0765284
0.0765162
0.076504
0.0764918
0.0764796
0.0764674
0.0764552
0.076443
0.0764308
0.0764185
0.0764063
0.0763941
0.0763818
0.0763696
0.0763573
0.076345
0.0763327
0.0763205
0.0763082
0.0762959
0.0762836
0.0762713
0.0762589
0.0762466
0.0762343
0.076222
0.0762096
0.0761973
0.0761849
0.0761725
0.0761602
0.0761478
0.0761354
0.076123
0.0761106
0.0760982
0.0760858
0.0760734
0.0760609
0.0760485
0.0760361
0.0760236
0.0760112
0.0759987
0.0759862
0.0759738
0.0759613
0.0759488
0.0759363
0.0759238
0.0759113
0.0758988
0.0758862
0.0758737
0.0758612
0.0758486
0.0758361
0.0758235
0.0758109
0.0757984
0.0757858
0.0757732
0.0757606
0.075748
0.0757354
0.0757228
0.0757101
0.0756975
0.0756849
0.0756722
0.0756596
0.0756469
0.0756342
0.0756215
0.0756089
0.0755962
0.0755835
0.0755708
0.075558
0.0755453
0.0755326
0.0755198
0.0755071
0.0754944
0.0754816
0.0754688
0.075456
0.0754433
0.0754305
0.0754177
0.0754049
0.0753921
0.0753792
0.0753664
0.0753536
0.0753407
0.0753279
0.075315
0.0753021
0.0752893
0.0752764
0.0752635
0.0752506
0.0752377
0.0752248
0.0752118
0.0751989
0.075186
0.075173
0.0751601
0.0751471
0.0751341
0.0751212
0.0751082
0.0750952
0.0750822
0.0750692
0.0750561
0.0750431
0.0750301
0.075017
0.075004
0.0749909
0.0749779
0.0749648
0.0749517
0.0749386
0.0749255
0.0749124
0.0748993
0.0748861
0.074873
0.0748599
0.0748467
0.0748336
0.0748204
0.0748072
0.074794
0.0747808
0.0747676
0.0747544
0.0747412
0.074728
0.0747147
0.0747015
0.0746883
0.074675
0.0746617
0.0746484
0.0746352
0.0746219
0.0746086
0.0745952
0.0745819
0.0745686
0.0745553
0.0745419
0.0745285
0.0745152
0.0745018
0.0744884
0.074475
0.0744616
0.0744482
0.0744348
0.0744214
0.0744079
0.0743945
0.074381
0.0743676
0.0743541
0.0743406
0.0743271
0.0743136
0.0743001
0.0742866
0.0742731
0.0742595
0.074246
0.0742324
0.0742189
0.0742053
0.0741917
0.0741781
0.0741645
0.0741509
0.0741373
0.0741237
0.07411
0.0740964
0.0740827
0.0740691
0.0740554
0.0740417
0.074028
0.0740143
0.0740006
0.0739869
0.0739731
0.0739594
0.0739456
0.0739319
0.0739181
0.0739043
0.0738905
0.0738767
0.0738629
0.0738491
0.0738352
0.0738214
0.0738076
0.0737937
0.0737798
0.0737659
0.0737521
0.0737382
0.0737242
0.0737103
0.0736964
0.0736825
0.0736685
0.0736545
0.0736406
0.0736266
0.0736126
0.0735986
0.0735846
0.0735706
0.0735565
0.0735425
0.0735284
0.0735144
0.0735003
0.0734862
0.0734721
0.073458
0.0734439
0.0734298
0.0734156
0.0734015
0.0733873
0.0733732
0.073359
0.0733448
0.0733306
0.0733164
0.0733022
0.0732879
0.0732737
0.0732594
0.0732452
0.0732309
0.0732166
0.0732023
0.073188
0.0731737
0.0731593
0.073145
0.0731306
0.0731163
0.0731019
0.0730875
0.0730731
0.0730587
0.0730443
0.0730299
0.0730154
0.073001
0.0729865
0.072972
0.0729575
0.072943
0.0729285
0.072914
0.0728995
0.0728849
0.0728704
0.0728558
0.0728412
0.0728266
0.072812
0.0727974
0.0727828
0.0727681
0.0727535
0.0727388
0.0727241
0.0727095
0.0726948
0.07268
0.0726653
0.0726506
0.0726358
0.0726211
0.0726063
0.0725915
0.0725767
0.0725619
0.0725471
0.0725323
0.0725174
0.0725026
0.0724877
0.0724728
0.0724579
0.072443
0.0724281
0.0724132
0.0723982
0.0723833
0.0723683
0.0723533
0.0723383
0.0723233
0.0723083
0.0722933
0.0722782
0.0722632
0.0722481
0.072233
0.0722179
0.0722028
0.0721877
0.0721725
0.0721574
0.0721422
0.072127
0.0721119
0.0720967
0.0720814
0.0720662
0.072051
0.0720357
0.0720204
0.0720052
0.0719899
0.0719745
0.0719592
0.0719439
0.0719285
0.0719132
0.0718978
0.0718824
0.071867
0.0718516
0.0718361
0.0718207
0.0718052
0.0717897
0.0717743
0.0717587
0.0717432
0.0717277
0.0717121
0.0716966
0.071681
0.0716654
0.0716498
0.0716342
0.0716186
0.0716029
0.0715872
0.0715716
0.0715559
0.0715402
0.0715244
0.0715087
0.071493
0.0714772
0.0714614
0.0714456
0.0714298
0.071414
0.0713981
0.0713823
0.0713664
0.0713505
0.0713346
0.0713187
0.0713028
0.0712868
0.0712708
0.0712549
0.0712389
0.0712229
0.0712068
0.0711908
0.0711747
0.0711587
0.0711426
0.0711265
0.0711103
0.0710942
0.071078
0.0710619
0.0710457
0.0710295
0.0710133
0.070997
0.0709808
0.0709645
0.0709482
0.0709319
0.0709156
0.0708993
0.0708829
0.0708665
0.0708502
0.0708338
0.0708173
0.0708009
0.0707845
0.070768
0.0707515
0.070735
0.0707185
0.0707019
0.0706854
0.0706688
0.0706522
0.0706356
0.070619
0.0706023
0.0705857
0.070569
0.0705523
0.0705356
0.0705188
0.0705021
0.0704853
0.0704685
0.0704517
0.0704349
0.0704181
0.0704012
0.0703843
0.0703674
0.0703505
0.0703336
0.0703166
0.0702997
0.0702827
0.0702657
0.0702486
0.0702316
0.0702145
0.0701974
0.0701803
0.0701632
0.070146
0.0701289
0.0701117
0.0700945
0.0700773
0.07006
0.0700428
0.0700255
0.0700082
0.0699909
0.0699735
0.0699562
0.0699388
0.0699214
0.069904
0.0698865
0.0698691
0.0698516
0.0698341
0.0698165
0.069799
0.0697814
0.0697638
0.0697462
0.0697286
0.069711
0.0696933
0.0696756
0.0696579
0.0696401
0.0696224
0.0696046
0.0695868
0.069569
0.0695511
0.0695333
0.0695154
0.0694975
0.0694795
0.0694616
0.0694436
0.0694256
0.0694076
0.0693895
0.0693715
0.0693534
0.0693353
0.0693171
0.069299
0.0692808
0.0692626
0.0692443
0.0692261
0.0692078
0.0691895
0.0691712
0.0691528
0.0691345
0.0691161
0.0690976
0.0690792
0.0690607
0.0690422
0.0690237
0.0690052
0.0689866
0.068968
0.0689494
0.0689307
0.0689121
0.0688934
0.0688747
0.0688559
0.0688372
0.0688184
0.0687995
0.0687807
0.0687618
0.0687429
0.068724
0.068705
0.0686861
0.0686671
0.068648
0.068629
0.0686099
0.0685908
0.0685716
0.0685525
0.0685333
0.0685141
0.0684948
0.0684755
0.0684562
0.0684369
0.0684176
0.0683982
0.0683788
0.0683593
0.0683398
0.0683203
0.0683008
0.0682812
0.0682617
0.068242
0.0682224
0.0682027
0.068183
0.0681633
0.0681435
0.0681237
0.0681039
0.068084
0.0680641
0.0680442
0.0680243
0.0680043
0.0679843
0.0679643
0.0679442
0.0679241
0.0679039
0.0678838
0.0678636
0.0678434
0.0678231
0.0678028
0.0677825
0.0677621
0.0677417
0.0677213
0.0677008
0.0676803
0.0676598
0.0676393
0.0676187
0.067598
0.0675774
0.0675567
0.067536
0.0675152
0.0674944
0.0674736
0.0674527
0.0674318
0.0674108
0.0673899
0.0673689
0.0673478
0.0673267
0.0673056
0.0672845
0.0672633
0.067242
0.0672208
0.0671995
0.0671781
0.0671567
0.0671353
0.0671139
0.0670924
0.0670708
0.0670493
0.0670277
0.067006
0.0669843
0.0669626
0.0669408
0.066919
0.0668972
0.0668753
0.0668534
0.0668314
0.0668094
0.0667873
0.0667652
0.0667431
0.0667209
0.0666987
0.0666764
0.0666541
0.0666318
0.0666094
0.066587
0.0665645
0.066542
0.0665194
0.0664968
0.0664741
0.0664514
0.0664287
0.0664059
0.0663831
0.0663602
0.0663373
0.0663143
0.0662913
0.0662682
0.0662451
0.0662219
0.0661987
0.0661754
0.0661521
0.0661288
0.0661054
0.0660819
0.0660584
0.0660349
0.0660113
0.0659876
0.0659639
0.0659401
0.0659163
0.0658925
0.0658686
0.0658446
0.0658206
0.0657965
0.0657724
0.0657482
0.065724
0.0656997
0.0656753
0.0656509
0.0656265
0.065602
0.0655774
0.0655528
0.0655281
0.0655034
0.0654786
0.0654537
0.0654288
0.0654038
0.0653788
0.0653537
0.0653286
0.0653033
0.0652781
0.0652527
0.0652273
0.0652019
0.0651764
0.0651508
0.0651251
0.0650994
0.0650736
0.0650478
0.0650219
0.0649959
0.0649699
0.0649438
0.0649176
0.0648914
0.0648651
0.0648387
0.0648122
0.0647857
0.0647591
0.0647325
0.0647058
0.064679
0.0646521
0.0646251
0.0645981
0.064571
0.0645438
0.0645166
0.0644893
0.0644619
0.0644344
0.0644069
0.0643792
0.0643515
0.0643237
0.0642959
0.0642679
0.0642399
0.0642118
0.0641836
0.0641553
0.064127
0.0640985
0.06407
0.0640414
0.0640127
0.0639839
0.063955
0.063926
0.063897
0.0638678
0.0638386
0.0638093
0.0637799
0.0637504
0.0637207
0.063691
0.0636612
0.0636313
0.0636014
0.0635713
0.0635411
0.0635108
0.0634804
0.0634499
0.0634193
0.0633886
0.0633578
0.0633269
0.0632959
0.0632648
0.0632335
0.0632022
0.0631708
0.0631392
0.0631075
0.0630757
0.0630438
0.0630118
0.0629797
0.0629475
0.0629151
0.0628826
0.06285
0.0628173
0.0627844
0.0627514
0.0627183
0.0626851
0.0626518
0.0626183
0.0625847
0.0625509
0.062517
0.062483
0.0624489
0.0624146
0.0623802
0.0623456
0.0623109
0.0622761
0.0622411
0.0622059
0.0621707
0.0621352
0.0620997
0.0620639
0.062028
0.061992
0.0619558
0.0619195
0.061883
0.0618463
0.0618095
0.0617725
0.0617353
0.061698
0.0616605
0.0616228
0.061585
0.061547
0.0615088
0.0614705
0.0614319
0.0613932
0.0613543
0.0613152
0.0612759
0.0612365
0.0611968
0.061157
0.0611169
0.0610767
0.0610362
0.0609956
0.0609548
0.0609137
0.0608725
0.060831
0.0607894
0.0607475
0.0607054
0.0606631
0.0606205
0.0605778
0.0605348
0.0604916
0.0604482
0.0604045
0.0603607
0.0603166
0.0602722
0.0602276
0.0601828
0.0601377
0.0600924
0.0600469
0.0600011
0.059955
0.0599088
0.0598622
0.0598154
0.0597684
0.0597211
0.0596735
0.0596257
0.0595776
0.0595293
0.0594807
0.0594318
0.0593827
0.0593333
0.0592837
0.0592338
0.0591836
0.0591332
0.0590825
0.0590315
0.0589803
0.0589288
0.0588771
0.0588251
0.0587728
0.0587203
0.0586676
0.0586145
0.0585613
0.0585078
0.058454
0.0584001
0.0583459
0.0582914
0.0582368
0.0581819
0.0581269
0.0580716
0.0580161
0.0579605
0.0579046
0.0578486
0.0577924
0.0577361
0.0576797
0.0576231
0.0575663
0.0575095
0.0574526
0.0573956
0.0573385
0.0572814
0.0572242
0.057167
0.0571097
0.0570525
0.0569953
0.0569381
0.0568809
0.0568238
0.0567668
0.0567099
0.0566531
0.0565964
0.0565399
0.0564835
0.0564273
0.0563713
0.0563155
0.0562599
0.0562045
0.0561494
0.0560946
0.05604
0.0559858
0.0559318
0.0558782
0.0558249
0.0557719
0.0557193
0.0556671
0.0556152
0.0555637
0.0555127
0.055462
0.0554117
0.0553618
0.0553124
0.0552634
0.0552148
0.0551667
0.055119
0.0550717
0.0550249
0.0549786
0.0549326
0.0548872
0.0548422
0.0547976
0.0547535
0.0547098
0.0546666
0.0546239
0.0545816
0.0545397
0.0544983
0.0544573
0.0544167
0.0543766
0.0543369
0.0542977
0.0542589
0.0542204
0.0541824
0.0541449
0.0541077
0.0540709
0.0540345
0.0539985
0.0539629
0.0539277
0.0538929
0.0538584
0.0538244
0.0537906
0.0537573
0.0537243
0.0536916
0.0536593
0.0536274
0.0535958
0.0535645
0.0535335
0.0535029
0.0534725
0.0534425
0.0534128
0.0533835
0.0533544
0.0533256
0.0532971
0.0532689
0.0532409
0.0532133
0.0531859
0.0531588
0.053132
0.0531054
0.0530791
0.0530531
0.0530272
0.0530017
0.0529764
0.0529513
0.0529265
0.0529019
0.0528775
0.0528534
0.0528295
0.0528058
0.0527823
0.052759
0.052736