/*--------------------------------*- C++ -*----------------------------------*\
| =========                 |                                                 |
| \\      /  F ield         | OpenFOAM: The Open Source CFD Toolbox           |
|  \\    /   O peration     | Version:  2.4.0                                 |
|   \\  /    A nd           | Web:      www.OpenFOAM.org                      |
|    \\/     M anipulation  |                                                 |
\*---------------------------------------------------------------------------*/
FoamFile
{
    version     2.0;
    format      ascii;
    class       volVectorField;
    location    "1e-06";
    object      UMean;
}
// * * * * * * * * * * * * * * * * * * * * * * * * * * * * * * * * * * * * * //

dimensions      [0 1 -1 0 0 0 0];

internalField   nonuniform List<vector> 
10000
(
(0 0 -8.20965e-13)
(0 0 0)
(0 0 0)
(0 0 0)
(0 0 0)
(0 0 1.57816e-12)
(0 0 0)
(0 0 1.57843e-12)
(0 0 3.15713e-12)
(0 0 3.1574e-12)
(0 0 3.15766e-12)
(0 0 3.15793e-12)
(0 0 2.36865e-12)
(0 0 7.89618e-13)
(0 0 0)
(0 0 -1.5795e-12)
(0 0 -7.89819e-13)
(0 0 -7.89886e-13)
(0 0 -7.89954e-13)
(0 0 0)
(0 0 0)
(0 0 -1.58031e-12)
(0 0 -1.58045e-12)
(0 0 -1.58058e-12)
(0 0 -1.58072e-12)
(0 0 -7.90425e-13)
(0 0 -7.90493e-13)
(0 0 0)
(0 0 -1.58125e-12)
(0 0 -7.90695e-13)
(0 0 -7.90763e-13)
(0 0 -1.58166e-12)
(0 0 -1.5818e-12)
(0 0 7.90965e-13)
(0 0 0)
(0 0 7.91101e-13)
(0 0 7.91168e-13)
(0 0 0)
(0 0 -7.91304e-13)
(0 0 -7.91372e-13)
(0 0 -7.91439e-13)
(0 0 -1.58301e-12)
(0 0 -2.37473e-12)
(0 0 -3.95822e-12)
(0 0 -3.16684e-12)
(0 0 -1.58356e-12)
(0 0 -3.16739e-12)
(0 0 -2.37574e-12)
(0 0 -2.37595e-12)
(0 0 -2.37615e-12)
(0 0 -2.37636e-12)
(0 0 -3.16875e-12)
(0 0 -3.96128e-12)
(0 0 -4.75394e-12)
(0 0 -5.54674e-12)
(0 0 -6.33968e-12)
(0 0 -6.34022e-12)
(0 0 -5.54817e-12)
(0 0 -6.34131e-12)
(0 0 -6.34186e-12)
(0 0 -7.13521e-12)
(0 0 -8.72156e-12)
(0 0 -7.92937e-12)
(0 0 -8.72306e-12)
(0 0 -9.51689e-12)
(0 0 -8.72457e-12)
(0 0 -6.34569e-12)
(0 0 -6.34624e-12)
(0 0 -7.14013e-12)
(0 0 -6.34733e-12)
(0 0 -6.34788e-12)
(0 0 -5.55488e-12)
(0 0 -5.55536e-12)
(0 0 -5.55584e-12)
(0 0 -4.76256e-12)
(0 0 -4.76297e-12)
(0 0 -6.35118e-12)
(0 0 -7.14569e-12)
(0 0 -6.35228e-12)
(0 0 -6.35283e-12)
(0 0 -6.35338e-12)
(0 0 -7.94241e-12)
(0 0 -8.73741e-12)
(0 0 -8.73817e-12)
(0 0 -7.15003e-12)
(0 0 -6.35613e-12)
(0 0 -6.35668e-12)
(0 0 -5.56258e-12)
(0 0 -6.35779e-12)
(0 0 -4.76876e-12)
(0 0 -4.76917e-12)
(0 0 -6.35945e-12)
(0 0 -7.155e-12)
(0 0 -7.15562e-12)
(0 0 -7.15624e-12)
(0 0 -5.56645e-12)
(0 0 -6.36221e-12)
(0 0 -5.56742e-12)
(0 0 -5.56791e-12)
(0 0 -4.77291e-12)
(0 0 -3.97777e-12)
(0 0 -3.18249e-12)
(0 0 -3.18277e-12)
(0 0 -2.38729e-12)
(0 0 -3.97916e-12)
(0 0 -4.77541e-12)
(0 0 -3.97985e-12)
(0 0 -2.38812e-12)
(0 0 -7.96109e-13)
(0 0 -7.96179e-13)
(0 0 -7.96249e-13)
(0 0 -1.59264e-12)
(0 0 -2.38916e-12)
(0 0 -1.59292e-12)
(0 0 -2.38958e-12)
(0 0 -2.38979e-12)
(0 0 -1.59333e-12)
(0 0 -2.39021e-12)
(0 0 -2.39042e-12)
(0 0 -3.98438e-12)
(0 0 -3.98473e-12)
(0 0 -3.18806e-12)
(0 0 -1.59417e-12)
(0 0 -1.59431e-12)
(0 0 -1.59445e-12)
(0 0 -7.97296e-13)
(0 0 -2.3921e-12)
(0 0 -1.59487e-12)
(0 0 -7.97506e-13)
(0 0 -7.97576e-13)
(0 0 7.97646e-13)
(0 0 0)
(0 0 -7.97786e-13)
(0 0 0)
(0 0 -1.59585e-12)
(0 0 0)
(0 0 0)
(0 0 2.39441e-12)
(0 0 7.98208e-13)
(0 0 1.59656e-12)
(0 0 3.19339e-12)
(0 0 1.59684e-12)
(0 0 1.59698e-12)
(0 0 2.39568e-12)
(0 0 3.19452e-12)
(0 0 4.79221e-12)
(0 0 3.19509e-12)
(0 0 7.98842e-13)
(0 0 7.98913e-13)
(0 0 7.98983e-13)
(0 0 2.39716e-12)
(0 0 3.1965e-12)
(0 0 3.99598e-12)
(0 0 3.19706e-12)
(0 0 3.19735e-12)
(0 0 3.19763e-12)
(0 0 3.19791e-12)
(0 0 3.1982e-12)
(0 0 3.19848e-12)
(0 0 3.99845e-12)
(0 0 3.99881e-12)
(0 0 6.39866e-12)
(0 0 4.79942e-12)
(0 0 4.79985e-12)
(0 0 4.00023e-12)
(0 0 3.20047e-12)
(0 0 3.20075e-12)
(0 0 2.40078e-12)
(0 0 3.20132e-12)
(0 0 8.00401e-13)
(0 0 8.00473e-13)
(0 0 8.00544e-13)
(0 0 8.00615e-13)
(0 0 1.60137e-12)
(0 0 2.40227e-12)
(0 0 2.40249e-12)
(0 0 2.4027e-12)
(0 0 3.20389e-12)
(0 0 3.20417e-12)
(0 0 3.20446e-12)
(0 0 1.60237e-12)
(0 0 8.01258e-13)
(0 0 8.01329e-13)
(0 0 8.01401e-13)
(0 0 2.40442e-12)
(0 0 8.01544e-13)
(0 0 1.60323e-12)
(0 0 1.60337e-12)
(0 0 3.20704e-12)
(0 0 1.60366e-12)
(0 0 1.6038e-12)
(0 0 8.01974e-13)
(0 0 -1.60409e-12)
(0 0 -3.20847e-12)
(0 0 -2.40657e-12)
(0 0 -4.01131e-12)
(0 0 -2.407e-12)
(0 0 -1.60481e-12)
(0 0 -2.40743e-12)
(0 0 -1.6051e-12)
(0 0 -2.40786e-12)
(0 0 -1.60539e-12)
(0 0 -1.60553e-12)
(0 0 -8.02837e-13)
(0 0 0)
(0 0 -1.60596e-12)
(0 0 0)
(0 0 -1.60625e-12)
(0 0 8.03198e-13)
(0 0 8.03271e-13)
(0 0 1.60669e-12)
(0 0 8.03415e-13)
(0 0 1.60698e-12)
(0 0 8.0356e-13)
(0 0 -1.60726e-12)
(0 0 -1.60741e-12)
(0 0 -1.60755e-12)
(0 0 -2.41155e-12)
(0 0 -8.03922e-13)
(0 0 -8.03995e-13)
(0 0 0)
(0 0 0)
(0 0 8.04213e-13)
(0 0 -8.04285e-13)
(0 0 0)
(0 0 8.04431e-13)
(0 0 8.04504e-13)
(0 0 2.41373e-12)
(0 0 1.6093e-12)
(0 0 1.60944e-12)
(0 0 2.41438e-12)
(0 0 2.4146e-12)
(0 0 1.60988e-12)
(0 0 2.41504e-12)
(0 0 2.41526e-12)
(0 0 1.61032e-12)
(0 0 2.4157e-12)
(0 0 1.61061e-12)
(0 0 3.22152e-12)
(0 0 1.6109e-12)
(0 0 1.61105e-12)
(0 0 1.6112e-12)
(0 0 1.61134e-12)
(0 0 2.41723e-12)
(0 0 2.41745e-12)
(0 0 4.02946e-12)
(0 0 3.22386e-12)
(0 0 4.03019e-12)
(0 0 2.41833e-12)
(0 0 2.41855e-12)
(0 0 1.61252e-12)
(0 0 3.22533e-12)
(0 0 3.22562e-12)
(0 0 4.83887e-12)
(0 0 4.83931e-12)
(0 0 5.64638e-12)
(0 0 4.0335e-12)
(0 0 4.84064e-12)
(0 0 3.22739e-12)
(0 0 3.22768e-12)
(0 0 8.06994e-13)
(0 0 8.07068e-13)
(0 0 0)
(0 0 0)
(0 0 0)
(0 0 0)
(0 0 0)
(0 0 0)
(0 0 -8.07585e-13)
(0 0 8.07659e-13)
(0 0 1.61547e-12)
(0 0 8.07807e-13)
(0 0 8.07881e-13)
(0 0 8.07956e-13)
(0 0 1.61606e-12)
(0 0 8.08104e-13)
(0 0 0)
(0 0 -8.08252e-13)
(0 0 -1.61665e-12)
(0 0 -8.08401e-13)
(0 0 0)
(0 0 0)
(0 0 -8.08624e-13)
(0 0 -1.6174e-12)
(0 0 8.08773e-13)
(0 0 8.08847e-13)
(0 0 0)
(0 0 1.61799e-12)
(0 0 8.09071e-13)
(0 0 1.61829e-12)
(0 0 8.0922e-13)
(0 0 1.61859e-12)
(0 0 3.23748e-12)
(0 0 3.23778e-12)
(0 0 2.42856e-12)
(0 0 8.09594e-13)
(0 0 8.09668e-13)
(0 0 -1.61949e-12)
(0 0 -1.61964e-12)
(0 0 -1.61979e-12)
(0 0 -2.4299e-12)
(0 0 -8.10043e-13)
(0 0 8.10118e-13)
(0 0 0)
(0 0 8.10268e-13)
(0 0 8.10343e-13)
(0 0 1.62084e-12)
(0 0 2.43148e-12)
(0 0 2.4317e-12)
(0 0 2.43193e-12)
(0 0 2.43216e-12)
(0 0 2.43238e-12)
(0 0 1.62174e-12)
(0 0 2.43283e-12)
(0 0 1.62204e-12)
(0 0 8.11095e-13)
(0 0 0)
(0 0 0)
(0 0 -8.11322e-13)
(0 0 -1.62279e-12)
(0 0 -8.11473e-13)
(0 0 -8.11548e-13)
(0 0 -8.11624e-13)
(0 0 -1.6234e-12)
(0 0 -3.2471e-12)
(0 0 -3.2474e-12)
(0 0 -4.87156e-12)
(0 0 -4.06001e-12)
(0 0 -4.87247e-12)
(0 0 -4.87292e-12)
(0 0 -2.43669e-12)
(0 0 -2.43692e-12)
(0 0 -2.43714e-12)
(0 0 -2.43737e-12)
(0 0 -2.4376e-12)
(0 0 0)
(0 0 -3.25074e-12)
(0 0 -1.62552e-12)
(0 0 -2.43851e-12)
(0 0 -3.25165e-12)
(0 0 -3.25196e-12)
(0 0 -4.87839e-12)
(0 0 -4.87885e-12)
(0 0 -5.69253e-12)
(0 0 -6.50635e-12)
(0 0 -6.50696e-12)
(0 0 -7.32102e-12)
(0 0 -6.50819e-12)
(0 0 -7.3224e-12)
(0 0 -7.32308e-12)
(0 0 -8.13753e-12)
(0 0 -8.13829e-12)
(0 0 -8.13906e-12)
(0 0 -8.13982e-12)
(0 0 -8.14059e-12)
(0 0 -9.76962e-12)
(0 0 -1.1399e-11)
(0 0 -1.30286e-11)
(0 0 -1.30298e-11)
(0 0 -1.30311e-11)
(0 0 -1.38468e-11)
(0 0 -1.22189e-11)
(0 0 -1.30348e-11)
(0 0 -1.38507e-11)
(0 0 -1.3852e-11)
(0 0 -1.38534e-11)
(0 0 -1.54846e-11)
(0 0 -1.30409e-11)
(0 0 -1.38573e-11)
(0 0 -1.30434e-11)
(0 0 -1.38599e-11)
(0 0 -1.30458e-11)
(0 0 -1.22316e-11)
(0 0 -1.14173e-11)
(0 0 -1.14184e-11)
(0 0 -1.30508e-11)
(0 0 -1.22363e-11)
(0 0 -1.14216e-11)
(0 0 -9.79087e-12)
(0 0 -1.06078e-11)
(0 0 -1.14248e-11)
(0 0 -1.06098e-11)
(0 0 -1.22432e-11)
(0 0 -9.79552e-12)
(0 0 -1.06128e-11)
(0 0 -1.14303e-11)
(0 0 -1.22479e-11)
(0 0 -1.2249e-11)
(0 0 -1.06169e-11)
(0 0 -9.8011e-12)
(0 0 -8.9852e-12)
(0 0 -6.53531e-12)
(0 0 -4.90195e-12)
(0 0 -5.71949e-12)
(0 0 -6.53718e-12)
(0 0 -5.72058e-12)
(0 0 -5.72112e-12)
(0 0 -5.72167e-12)
(0 0 -4.0873e-12)
(0 0 -3.27015e-12)
(0 0 -5.72331e-12)
(0 0 -6.54155e-12)
(0 0 -7.35994e-12)
(0 0 -6.5428e-12)
(0 0 -5.72549e-12)
(0 0 -5.72604e-12)
(0 0 -4.90851e-12)
(0 0 -4.09081e-12)
(0 0 -3.27296e-12)
(0 0 -3.27328e-12)
(0 0 -4.91038e-12)
(0 0 -4.91086e-12)
(0 0 -6.54843e-12)
(0 0 -6.54906e-12)
(0 0 -7.3684e-12)
(0 0 -5.73153e-12)
(0 0 -6.55095e-12)
(0 0 -5.73263e-12)
(0 0 -7.37123e-12)
(0 0 -6.55283e-12)
(0 0 -5.73428e-12)
(0 0 -5.73483e-12)
(0 0 -6.55472e-12)
(0 0 -7.37477e-12)
(0 0 -6.55598e-12)
(0 0 -5.73704e-12)
(0 0 -6.55725e-12)
(0 0 -8.19735e-12)
(0 0 -7.37832e-12)
(0 0 -9.01882e-12)
(0 0 -9.83966e-12)
(0 0 -1.06607e-11)
(0 0 -9.84156e-12)
(0 0 -9.84251e-12)
(0 0 -8.20288e-12)
(0 0 -7.38331e-12)
(0 0 -8.20447e-12)
(0 0 -9.02578e-12)
(0 0 -9.02666e-12)
(0 0 -8.20684e-12)
(0 0 -6.56611e-12)
(0 0 -4.92506e-12)
(0 0 -4.10461e-12)
(0 0 -4.10501e-12)
(0 0 -4.10541e-12)
(0 0 -3.28464e-12)
(0 0 -4.1062e-12)
(0 0 -2.46396e-12)
(0 0 -2.4642e-12)
(0 0 -2.46444e-12)
(0 0 -2.46468e-12)
(0 0 -8.21639e-13)
(0 0 -1.64344e-12)
(0 0 0)
(0 0 0)
(0 0 -8.21958e-13)
(0 0 -8.22038e-13)
(0 0 0)
(0 0 -1.6444e-12)
(0 0 -1.64456e-12)
(0 0 -2.46707e-12)
(0 0 -1.64488e-12)
(0 0 -3.29007e-12)
(0 0 -3.29039e-12)
(0 0 -3.29071e-12)
(0 0 -3.29104e-12)
(0 0 -2.46852e-12)
(0 0 -1.64584e-12)
(0 0 -1.646e-12)
(0 0 -3.29232e-12)
(0 0 -3.29264e-12)
(0 0 -3.29296e-12)
(0 0 -2.46996e-12)
(0 0 -1.6468e-12)
(0 0 -3.29393e-12)
(0 0 -8.23563e-13)
(0 0 -1.64729e-12)
(0 0 -8.23724e-13)
(0 0 -8.23805e-13)
(0 0 8.23885e-13)
(0 0 0)
(0 0 0)
(0 0 2.47238e-12)
(0 0 2.47262e-12)
(0 0 8.24289e-13)
(0 0 2.47311e-12)
(0 0 4.12226e-12)
(0 0 3.29813e-12)
(0 0 4.12306e-12)
(0 0 3.29878e-12)
(0 0 2.47433e-12)
(0 0 2.47457e-12)
(0 0 1.64987e-12)
(0 0 1.65004e-12)
(0 0 1.6502e-12)
(0 0 1.65036e-12)
(0 0 8.25262e-13)
(0 0 1.65069e-12)
(0 0 1.65085e-12)
(0 0 2.47652e-12)
(0 0 1.65118e-12)
(0 0 8.25669e-13)
(0 0 1.6515e-12)
(0 0 8.25832e-13)
(0 0 2.47774e-12)
(0 0 3.30398e-12)
(0 0 4.13038e-12)
(0 0 1.65232e-12)
(0 0 3.30496e-12)
(0 0 3.30529e-12)
(0 0 1.65281e-12)
(0 0 1.65297e-12)
(0 0 -8.26567e-13)
(0 0 -8.26649e-13)
(0 0 -1.65346e-12)
(0 0 -3.30725e-12)
(0 0 -3.30758e-12)
(0 0 -2.48093e-12)
(0 0 -3.30824e-12)
(0 0 -4.13571e-12)
(0 0 -3.30889e-12)
(0 0 -3.30922e-12)
(0 0 -4.13694e-12)
(0 0 -4.13735e-12)
(0 0 -3.31021e-12)
(0 0 -3.31054e-12)
(0 0 -3.31087e-12)
(0 0 -4.139e-12)
(0 0 -3.31153e-12)
(0 0 -2.48389e-12)
(0 0 -2.48414e-12)
(0 0 -3.31252e-12)
(0 0 -4.14106e-12)
(0 0 -3.31318e-12)
(0 0 -3.31351e-12)
(0 0 -4.1423e-12)
(0 0 -3.31417e-12)
(0 0 -4.97175e-12)
(0 0 -4.14354e-12)
(0 0 -3.31516e-12)
(0 0 -3.31549e-12)
(0 0 -3.31583e-12)
(0 0 -2.48712e-12)
(0 0 -2.48737e-12)
(0 0 -1.65841e-12)
(0 0 -1.65858e-12)
(0 0 0)
(0 0 -8.29454e-13)
(0 0 -8.29538e-13)
(0 0 -2.48886e-12)
(0 0 -3.31882e-12)
(0 0 -1.65957e-12)
(0 0 -1.65974e-12)
(0 0 -2.48986e-12)
(0 0 -1.66007e-12)
(0 0 -8.30121e-13)
(0 0 -8.30204e-13)
(0 0 -8.30288e-13)
(0 0 8.30371e-13)
(0 0 0)
(0 0 2.49161e-12)
(0 0 3.32249e-12)
(0 0 3.32282e-12)
(0 0 3.32316e-12)
(0 0 4.15436e-12)
(0 0 6.64765e-12)
(0 0 6.64832e-12)
(0 0 7.48012e-12)
(0 0 6.64967e-12)
(0 0 7.48163e-12)
(0 0 6.65101e-12)
(0 0 5.82022e-12)
(0 0 4.98926e-12)
(0 0 4.98977e-12)
(0 0 4.99027e-12)
(0 0 5.82257e-12)
(0 0 4.99128e-12)
(0 0 6.65572e-12)
(0 0 4.16024e-12)
(0 0 4.9928e-12)
(0 0 4.99331e-12)
(0 0 4.16151e-12)
(0 0 3.32955e-12)
(0 0 3.32988e-12)
(0 0 1.66511e-12)
(0 0 8.3264e-13)
(0 0 8.32724e-13)
(0 0 8.32809e-13)
(0 0 8.32894e-13)
(0 0 -1.66596e-12)
(0 0 -1.66613e-12)
(0 0 -8.33148e-13)
(0 0 0)
(0 0 -8.33317e-13)
(0 0 -1.6668e-12)
(0 0 -1.66697e-12)
(0 0 -1.66714e-12)
(0 0 -1.66731e-12)
(0 0 -1.66748e-12)
(0 0 -8.33827e-13)
(0 0 -8.33912e-13)
(0 0 0)
(0 0 0)
(0 0 0)
(0 0 -8.34253e-13)
(0 0 0)
(0 0 0)
(0 0 1.66902e-12)
(0 0 0)
(0 0 -1.66936e-12)
(0 0 0)
(0 0 0)
(0 0 8.34936e-13)
(0 0 0)
(0 0 0)
(0 0 0)
(0 0 8.35279e-13)
(0 0 8.35364e-13)
(0 0 -8.3545e-13)
(0 0 -1.67107e-12)
(0 0 -2.50687e-12)
(0 0 -2.50712e-12)
(0 0 -2.50738e-12)
(0 0 -8.3588e-13)
(0 0 -8.35966e-13)
(0 0 -8.36052e-13)
(0 0 -1.67228e-12)
(0 0 -2.50867e-12)
(0 0 -1.67262e-12)
(0 0 -2.50919e-12)
(0 0 -2.50945e-12)
(0 0 -8.36569e-13)
(0 0 -2.50997e-12)
(0 0 -2.51022e-12)
(0 0 -2.51048e-12)
(0 0 -3.34766e-12)
(0 0 -2.511e-12)
(0 0 -3.34835e-12)
(0 0 -2.51152e-12)
(0 0 -8.3726e-13)
(0 0 -1.67469e-12)
(0 0 0)
(0 0 -2.51256e-12)
(0 0 -1.67521e-12)
(0 0 -1.67539e-12)
(0 0 0)
(0 0 -8.37868e-13)
(0 0 -8.37955e-13)
(0 0 0)
(0 0 1.67626e-12)
(0 0 0)
(0 0 1.67661e-12)
(0 0 8.3839e-13)
(0 0 2.51543e-12)
(0 0 2.51569e-12)
(0 0 4.19326e-12)
(0 0 5.87117e-12)
(0 0 6.71061e-12)
(0 0 6.71131e-12)
(0 0 5.87301e-12)
(0 0 6.71271e-12)
(0 0 6.71341e-12)
(0 0 5.03558e-12)
(0 0 4.19675e-12)
(0 0 2.51832e-12)
(0 0 5.03716e-12)
(0 0 5.03768e-12)
(0 0 5.03821e-12)
(0 0 4.19895e-12)
(0 0 3.35951e-12)
(0 0 4.19982e-12)
(0 0 5.04032e-12)
(0 0 3.36056e-12)
(0 0 1.68046e-12)
(0 0 3.36127e-12)
(0 0 4.20202e-12)
(0 0 5.04296e-12)
(0 0 4.2029e-12)
(0 0 4.20334e-12)
(0 0 4.20379e-12)
(0 0 4.20423e-12)
(0 0 4.20467e-12)
(0 0 2.52307e-12)
(0 0 5.04666e-12)
(0 0 5.04719e-12)
(0 0 5.88901e-12)
(0 0 6.73101e-12)
(0 0 7.57318e-12)
(0 0 7.57398e-12)
(0 0 8.41642e-12)
(0 0 1.01008e-11)
(0 0 1.01018e-11)
(0 0 1.01029e-11)
(0 0 1.0104e-11)
(0 0 8.42085e-12)
(0 0 7.57957e-12)
(0 0 8.42263e-12)
(0 0 5.89646e-12)
(0 0 5.05465e-12)
(0 0 3.37012e-12)
(0 0 2.52786e-12)
(0 0 2.52812e-12)
(0 0 2.52839e-12)
(0 0 8.42887e-13)
(0 0 8.42976e-13)
(0 0 3.37226e-12)
(0 0 0)
(0 0 1.68649e-12)
(0 0 0)
(0 0 1.68685e-12)
(0 0 3.37405e-12)
(0 0 4.21801e-12)
(0 0 3.37476e-12)
(0 0 2.53134e-12)
(0 0 3.37548e-12)
(0 0 3.37584e-12)
(0 0 1.6881e-12)
(0 0 1.68828e-12)
(0 0 3.37692e-12)
(0 0 2.53296e-12)
(0 0 2.53323e-12)
(0 0 3.378e-12)
(0 0 2.53377e-12)
(0 0 1.68936e-12)
(0 0 1.68954e-12)
(0 0 2.53458e-12)
(0 0 2.53485e-12)
(0 0 1.69008e-12)
(0 0 1.69026e-12)
(0 0 1.69044e-12)
(0 0 4.22655e-12)
(0 0 3.38161e-12)
(0 0 3.38197e-12)
(0 0 3.38233e-12)
(0 0 4.22836e-12)
(0 0 4.22882e-12)
(0 0 4.22927e-12)
(0 0 5.92161e-12)
(0 0 7.61432e-12)
(0 0 7.61513e-12)
(0 0 5.92352e-12)
(0 0 5.07785e-12)
(0 0 5.07839e-12)
(0 0 4.23245e-12)
(0 0 3.38632e-12)
(0 0 3.38668e-12)
(0 0 3.38705e-12)
(0 0 2.54056e-12)
(0 0 1.69389e-12)
(0 0 8.47036e-13)
(0 0 8.47127e-13)
(0 0 8.47218e-13)
(0 0 2.54193e-12)
(0 0 2.5422e-12)
(0 0 8.47492e-13)
(0 0 -8.47584e-13)
(0 0 -8.47675e-13)
(0 0 -8.47766e-13)
(0 0 8.47858e-13)
(0 0 0)
(0 0 0)
(0 0 1.69627e-12)
(0 0 4.24112e-12)
(0 0 3.39327e-12)
(0 0 5.09045e-12)
(0 0 5.091e-12)
(0 0 5.94014e-12)
(0 0 5.94079e-12)
(0 0 7.63898e-12)
(0 0 5.94208e-12)
(0 0 5.94272e-12)
(0 0 5.94337e-12)
(0 0 5.09487e-12)
(0 0 5.09542e-12)
(0 0 5.09597e-12)
(0 0 5.09653e-12)
(0 0 4.24757e-12)
(0 0 5.09764e-12)
(0 0 4.24849e-12)
(0 0 4.24895e-12)
(0 0 5.0993e-12)
(0 0 5.09986e-12)
(0 0 5.95048e-12)
(0 0 6.80129e-12)
(0 0 6.80203e-12)
(0 0 7.65312e-12)
(0 0 5.95308e-12)
(0 0 5.1032e-12)
(0 0 5.10375e-12)
(0 0 4.25359e-12)
(0 0 3.40325e-12)
(0 0 3.40362e-12)
(0 0 3.40399e-12)
(0 0 5.10654e-12)
(0 0 4.25592e-12)
(0 0 5.10766e-12)
(0 0 5.10822e-12)
(0 0 4.25732e-12)
(0 0 1.70311e-12)
(0 0 2.55495e-12)
(0 0 8.51744e-13)
(0 0 -8.51837e-13)
(0 0 8.51931e-13)
(0 0 1.70405e-12)
(0 0 1.70424e-12)
(0 0 3.40885e-12)
(0 0 3.40922e-12)
(0 0 2.5572e-12)
(0 0 3.40997e-12)
(0 0 1.70517e-12)
(0 0 1.70536e-12)
(0 0 1.70555e-12)
(0 0 0)
(0 0 -8.52963e-13)
(0 0 -8.53057e-13)
(0 0 0)
(0 0 -1.70649e-12)
(0 0 -2.56002e-12)
(0 0 -2.5603e-12)
(0 0 -1.70706e-12)
(0 0 -2.56087e-12)
(0 0 -2.56115e-12)
(0 0 -2.56143e-12)
(0 0 -8.53906e-13)
(0 0 -8.54e-13)
(0 0 0)
(0 0 -1.70838e-12)
(0 0 0)
(0 0 0)
(0 0 0)
(0 0 0)
(0 0 0)
(0 0 1.70952e-12)
(0 0 0)
(0 0 8.54948e-13)
(0 0 0)
(0 0 0)
(0 0 8.55233e-13)
(0 0 1.71066e-12)
(0 0 3.4217e-12)
(0 0 3.42208e-12)
(0 0 2.56684e-12)
(0 0 4.27855e-12)
(0 0 4.27903e-12)
(0 0 4.2795e-12)
(0 0 5.13598e-12)
(0 0 5.99264e-12)
(0 0 7.70569e-12)
(0 0 6.85027e-12)
(0 0 7.70741e-12)
(0 0 7.70827e-12)
(0 0 5.99599e-12)
(0 0 5.99667e-12)
(0 0 7.71086e-12)
(0 0 9.42544e-12)
(0 0 1.02835e-11)
(0 0 1.02846e-11)
(0 0 1.02858e-11)
(0 0 1.11442e-11)
(0 0 1.20027e-11)
(0 0 1.11467e-11)
(0 0 1.2863e-11)
(0 0 1.28644e-11)
(0 0 1.20081e-11)
(0 0 1.20095e-11)
(0 0 9.43709e-12)
(0 0 1.11542e-11)
(0 0 1.02973e-11)
(0 0 1.11567e-11)
(0 0 9.44134e-12)
(0 0 8.58401e-12)
(0 0 7.72648e-12)
(0 0 6.86875e-12)
(0 0 5.15215e-12)
(0 0 4.29394e-12)
(0 0 5.15331e-12)
(0 0 6.87186e-12)
(0 0 7.73171e-12)
(0 0 7.73259e-12)
(0 0 8.59273e-12)
(0 0 9.45308e-12)
(0 0 6.87574e-12)
(0 0 6.87652e-12)
(0 0 5.15798e-12)
(0 0 6.01832e-12)
(0 0 4.29929e-12)
(0 0 4.29978e-12)
(0 0 3.44021e-12)
(0 0 1.7203e-12)
(0 0 8.60248e-13)
(0 0 0)
(0 0 -1.72089e-12)
(0 0 0)
(0 0 0)
(0 0 -8.60737e-13)
(0 0 8.60835e-13)
(0 0 0)
(0 0 1.72206e-12)
(0 0 1.72226e-12)
(0 0 8.61228e-13)
(0 0 8.61326e-13)
(0 0 1.72285e-12)
(0 0 2.58457e-12)
(0 0 3.44648e-12)
(0 0 4.3086e-12)
(0 0 5.17091e-12)
(0 0 6.03341e-12)
(0 0 6.89612e-12)
(0 0 6.89691e-12)
(0 0 6.8977e-12)
(0 0 5.17387e-12)
(0 0 6.03687e-12)
(0 0 4.31254e-12)
(0 0 4.31304e-12)
(0 0 3.45083e-12)
(0 0 3.45122e-12)
(0 0 4.31452e-12)
(0 0 3.45201e-12)
(0 0 4.31551e-12)
(0 0 4.31601e-12)
(0 0 5.17981e-12)
(0 0 5.1804e-12)
(0 0 6.0445e-12)
(0 0 4.318e-12)
(0 0 3.45479e-12)
(0 0 3.45519e-12)
(0 0 2.59169e-12)
(0 0 2.59199e-12)
(0 0 4.32048e-12)
(0 0 3.45679e-12)
(0 0 3.45719e-12)
(0 0 3.45758e-12)
(0 0 1.72899e-12)
(0 0 1.72919e-12)
(0 0 1.72939e-12)
(0 0 2.59439e-12)
(0 0 1.72979e-12)
(0 0 0)
(0 0 1.73019e-12)
(0 0 0)
(0 0 0)
(0 0 -8.65397e-13)
(0 0 -1.731e-12)
(0 0 -1.7312e-12)
(0 0 -3.46279e-12)
(0 0 -8.65799e-13)
(0 0 0)
(0 0 -8.66e-13)
(0 0 0)
(0 0 -1.7324e-12)
(0 0 -1.73261e-12)
(0 0 -1.73281e-12)
(0 0 -2.59951e-12)
(0 0 -3.46642e-12)
(0 0 -1.73341e-12)
(0 0 -3.46723e-12)
(0 0 -1.73382e-12)
(0 0 -3.46804e-12)
(0 0 -3.46844e-12)
(0 0 -4.33606e-12)
(0 0 -5.20388e-12)
(0 0 -4.33707e-12)
(0 0 -2.60255e-12)
(0 0 -1.73524e-12)
(0 0 0)
(0 0 0)
(0 0 1.73585e-12)
(0 0 1.73605e-12)
(0 0 2.60438e-12)
(0 0 2.60468e-12)
(0 0 1.73666e-12)
(0 0 8.68432e-13)
(0 0 8.68534e-13)
(0 0 8.68636e-13)
(0 0 8.68738e-13)
(0 0 0)
(0 0 8.68942e-13)
(0 0 8.69045e-13)
(0 0 0)
(0 0 8.69249e-13)
(0 0 1.7387e-12)
(0 0 3.47782e-12)
(0 0 3.47823e-12)
(0 0 3.47864e-12)
(0 0 4.34881e-12)
(0 0 5.21919e-12)
(0 0 4.34984e-12)
(0 0 4.35035e-12)
(0 0 2.61052e-12)
(0 0 2.61083e-12)
(0 0 2.61114e-12)
(0 0 1.74096e-12)
(0 0 1.74117e-12)
(0 0 3.48275e-12)
(0 0 1.74158e-12)
(0 0 8.70895e-13)
(0 0 -8.70998e-13)
(0 0 -1.7422e-12)
(0 0 -2.61361e-12)
(0 0 -8.71308e-13)
(0 0 -1.74282e-12)
(0 0 -8.71515e-13)
(0 0 -2.61486e-12)
(0 0 -4.35861e-12)
(0 0 -5.23096e-12)
(0 0 -6.97544e-12)
(0 0 -5.2322e-12)
(0 0 -6.10496e-12)
(0 0 -6.97793e-12)
(0 0 -4.36173e-12)
(0 0 -4.36225e-12)
(0 0 -4.36277e-12)
(0 0 -4.36329e-12)
(0 0 -3.49105e-12)
(0 0 -2.6186e-12)
(0 0 -2.61891e-12)
(0 0 -1.74615e-12)
(0 0 -1.74636e-12)
(0 0 -1.74657e-12)
(0 0 -8.73389e-13)
(0 0 -8.73494e-13)
(0 0 -8.73598e-13)
(0 0 -8.73703e-13)
(0 0 0)
(0 0 1.74783e-12)
(0 0 3.49607e-12)
(0 0 3.49649e-12)
(0 0 2.62268e-12)
(0 0 8.74333e-13)
(0 0 8.74438e-13)
(0 0 8.74543e-13)
(0 0 8.74648e-13)
(0 0 0)
(0 0 0)
(0 0 -8.74965e-13)
(0 0 -3.50028e-12)
(0 0 -3.5007e-12)
(0 0 -5.25169e-12)
(0 0 -6.12771e-12)
(0 0 -7.00394e-12)
(0 0 -7.88039e-12)
(0 0 -7.00563e-12)
(0 0 -5.25486e-12)
(0 0 -4.37958e-12)
(0 0 -3.50409e-12)
(0 0 -3.50451e-12)
(0 0 -3.50494e-12)
(0 0 -1.75268e-12)
(0 0 0)
(0 0 -1.75311e-12)
(0 0 -1.75332e-12)
(0 0 0)
(0 0 -8.76873e-13)
(0 0 -2.63094e-12)
(0 0 -3.50834e-12)
(0 0 -3.50877e-12)
(0 0 -4.3865e-12)
(0 0 -4.38703e-12)
(0 0 -4.38756e-12)
(0 0 -6.14334e-12)
(0 0 -5.26636e-12)
(0 0 -6.14484e-12)
(0 0 -5.26764e-12)
(0 0 -5.26829e-12)
(0 0 -4.39078e-12)
(0 0 -5.26957e-12)
(0 0 -3.51348e-12)
(0 0 -1.75695e-12)
(0 0 -2.63575e-12)
(0 0 -1.75738e-12)
(0 0 -3.5152e-12)
(0 0 -3.51563e-12)
(0 0 -3.51606e-12)
(0 0 -3.51649e-12)
(0 0 -4.39615e-12)
(0 0 -5.27603e-12)
(0 0 -5.27668e-12)
(0 0 -5.27732e-12)
(0 0 -4.39831e-12)
(0 0 -4.39885e-12)
(0 0 -4.39939e-12)
(0 0 -4.39993e-12)
(0 0 -3.52038e-12)
(0 0 -5.28122e-12)
(0 0 -6.16218e-12)
(0 0 -6.16294e-12)
(0 0 -6.1637e-12)
(0 0 -6.16446e-12)
(0 0 -7.04597e-12)
(0 0 -7.04684e-12)
(0 0 -7.92867e-12)
(0 0 -7.92965e-12)
(0 0 -8.81181e-12)
(0 0 -9.69419e-12)
(0 0 -7.93259e-12)
(0 0 -8.81508e-12)
(0 0 -1.05794e-11)
(0 0 -9.69899e-12)
(0 0 -1.0582e-11)
(0 0 -7.9375e-12)
(0 0 -8.82054e-12)
(0 0 -9.7038e-12)
(0 0 -9.70501e-12)
(0 0 -7.94145e-12)
(0 0 -8.82492e-12)
(0 0 -8.82602e-12)
(0 0 -8.82712e-12)
(0 0 -8.82822e-12)
(0 0 -1.05952e-11)
(0 0 -9.71346e-12)
(0 0 -8.83152e-12)
(0 0 -9.71588e-12)
(0 0 -1.06005e-11)
(0 0 -8.83482e-12)
(0 0 -8.83592e-12)
(0 0 -7.95332e-12)
(0 0 -7.0705e-12)
(0 0 -7.07139e-12)
(0 0 -7.07227e-12)
(0 0 -7.9573e-12)
(0 0 -6.18978e-12)
(0 0 -5.30619e-12)
(0 0 -4.42238e-12)
(0 0 -3.53835e-12)
(0 0 -1.7694e-12)
(0 0 -1.76962e-12)
(0 0 -8.8492e-13)
(0 0 -8.85031e-13)
(0 0 0)
(0 0 -1.77051e-12)
(0 0 -1.77073e-12)
(0 0 -1.77095e-12)
(0 0 -8.85588e-13)
(0 0 -8.85699e-13)
(0 0 -1.77162e-12)
(0 0 -1.77184e-12)
(0 0 -2.6581e-12)
(0 0 -1.77229e-12)
(0 0 -8.86257e-13)
(0 0 0)
(0 0 0)
(0 0 0)
(0 0 0)
(0 0 8.86817e-13)
(0 0 1.77386e-12)
(0 0 3.54817e-12)
(0 0 4.43577e-12)
(0 0 2.6618e-12)
(0 0 2.66214e-12)
(0 0 1.77498e-12)
(0 0 4.43802e-12)
(0 0 6.21401e-12)
(0 0 5.32697e-12)
(0 0 7.10353e-12)
(0 0 7.99249e-12)
(0 0 7.99351e-12)
(0 0 8.8828e-12)
(0 0 8.88393e-12)
(0 0 7.99656e-12)
(0 0 6.22034e-12)
(0 0 5.3324e-12)
(0 0 4.44423e-12)
(0 0 4.4448e-12)
(0 0 3.55629e-12)
(0 0 3.55675e-12)
(0 0 2.6679e-12)
(0 0 1.77883e-12)
(0 0 2.66858e-12)
(0 0 1.77928e-12)
(0 0 1.77951e-12)
(0 0 3.55947e-12)
(0 0 2.66995e-12)
(0 0 2.67029e-12)
(0 0 2.67063e-12)
(0 0 3.5613e-12)
(0 0 3.56176e-12)
(0 0 3.56221e-12)
(0 0 3.56267e-12)
(0 0 4.45391e-12)
(0 0 4.45448e-12)
(0 0 4.45506e-12)
(0 0 2.67338e-12)
(0 0 8.9124e-13)
(0 0 0)
(0 0 -8.9147e-13)
(0 0 -8.91585e-13)
(0 0 0)
(0 0 0)
(0 0 -8.9193e-13)
(0 0 1.78409e-12)
(0 0 2.67648e-12)
(0 0 3.5691e-12)
(0 0 5.35435e-12)
(0 0 6.24755e-12)
(0 0 7.14098e-12)
(0 0 4.46369e-12)
(0 0 5.35712e-12)
(0 0 3.57188e-12)
(0 0 3.57234e-12)
(0 0 4.466e-12)
(0 0 4.46658e-12)
(0 0 4.46716e-12)
(0 0 3.57419e-12)
(0 0 2.68099e-12)
(0 0 1.78756e-12)
(0 0 3.57559e-12)
(0 0 3.57605e-12)
(0 0 5.36478e-12)
(0 0 4.47123e-12)
(0 0 5.36618e-12)
(0 0 5.36688e-12)
(0 0 3.57839e-12)
(0 0 1.78943e-12)
(0 0 8.9483e-13)
(0 0 0)
(0 0 8.95064e-13)
(0 0 -1.79036e-12)
(0 0 -1.7906e-12)
(0 0 -2.68625e-12)
(0 0 -2.6866e-12)
(0 0 -1.7913e-12)
(0 0 -2.6873e-12)
(0 0 -4.47942e-12)
(0 0 -4.48001e-12)
(0 0 -4.4806e-12)
(0 0 -1.79247e-12)
(0 0 -8.96355e-13)
(0 0 8.96473e-13)
(0 0 8.96591e-13)
(0 0 8.96709e-13)
(0 0 8.96827e-13)
(0 0 1.79389e-12)
(0 0 0)
(0 0 1.79436e-12)
(0 0 8.973e-13)
(0 0 8.97418e-13)
(0 0 8.97536e-13)
(0 0 8.97655e-13)
(0 0 -8.97774e-13)
(0 0 -8.97892e-13)
(0 0 0)
(0 0 8.9813e-13)
(0 0 1.7965e-12)
(0 0 2.6951e-12)
(0 0 2.69546e-12)
(0 0 5.39164e-12)
(0 0 5.39235e-12)
(0 0 6.29191e-12)
(0 0 6.29275e-12)
(0 0 5.3945e-12)
(0 0 6.29442e-12)
(0 0 7.19458e-12)
(0 0 7.19553e-12)
(0 0 7.19649e-12)
(0 0 6.29777e-12)
(0 0 8.09821e-12)
(0 0 8.09929e-12)
(0 0 8.10037e-12)
(0 0 6.30113e-12)
(0 0 6.30197e-12)
(0 0 6.30281e-12)
(0 0 8.1047e-12)
(0 0 9.00642e-12)
(0 0 7.2061e-12)
(0 0 8.10795e-12)
(0 0 9.91104e-12)
(0 0 7.209e-12)
(0 0 7.20996e-12)
(0 0 6.30956e-12)
(0 0 6.31041e-12)
(0 0 8.11447e-12)
(0 0 9.91902e-12)
(0 0 9.92035e-12)
(0 0 9.01971e-12)
(0 0 7.21674e-12)
(0 0 8.11992e-12)
(0 0 7.21868e-12)
(0 0 8.12211e-12)
(0 0 7.22063e-12)
(0 0 5.4162e-12)
(0 0 6.31975e-12)
(0 0 5.41766e-12)
(0 0 6.32146e-12)
(0 0 6.32231e-12)
(0 0 6.32317e-12)
(0 0 6.32402e-12)
(0 0 7.22843e-12)
(0 0 6.32573e-12)
(0 0 6.32659e-12)
(0 0 6.32744e-12)
(0 0 5.42426e-12)
(0 0 3.61666e-12)
(0 0 4.52144e-12)
(0 0 3.61764e-12)
(0 0 4.52267e-12)
(0 0 4.52328e-12)
(0 0 2.71434e-12)
(0 0 1.80981e-12)
(0 0 3.6201e-12)
(0 0 3.6206e-12)
(0 0 2.71582e-12)
(0 0 5.43237e-12)
(0 0 4.5276e-12)
(0 0 6.3395e-12)
(0 0 4.52883e-12)
(0 0 7.24712e-12)
(0 0 5.43608e-12)
(0 0 6.34296e-12)
(0 0 6.34383e-12)
(0 0 6.3447e-12)
(0 0 6.34556e-12)
(0 0 9.06633e-12)
(0 0 1.08811e-11)
(0 0 1.08826e-11)
(0 0 1.17911e-11)
(0 0 9.97844e-12)
(0 0 9.97981e-12)
(0 0 9.98118e-12)
(0 0 9.07504e-12)
(0 0 8.16866e-12)
(0 0 8.16979e-12)
(0 0 7.26303e-12)
(0 0 6.35603e-12)
(0 0 7.26503e-12)
(0 0 6.35778e-12)
(0 0 6.35866e-12)
(0 0 6.35953e-12)
(0 0 4.54315e-12)
(0 0 2.72627e-12)
(0 0 1.81776e-12)
(0 0 2.72702e-12)
(0 0 9.09133e-13)
(0 0 2.72778e-12)
(0 0 3.63754e-12)
(0 0 3.63804e-12)
(0 0 1.81927e-12)
(0 0 1.81953e-12)
(0 0 1.81978e-12)
(0 0 9.10015e-13)
(0 0 9.10141e-13)
(0 0 9.10268e-13)
(0 0 0)
(0 0 0)
(0 0 -9.10648e-13)
(0 0 -9.10775e-13)
(0 0 0)
(0 0 0)
(0 0 0)
(0 0 -9.11283e-13)
(0 0 -1.82282e-12)
(0 0 -2.73461e-12)
(0 0 -1.82333e-12)
(0 0 -2.73538e-12)
(0 0 -9.11919e-13)
(0 0 -1.82409e-12)
(0 0 -9.12175e-13)
(0 0 -3.64921e-12)
(0 0 -4.56215e-12)
(0 0 -3.65023e-12)
(0 0 -3.65075e-12)
(0 0 -3.65126e-12)
(0 0 -9.12943e-13)
(0 0 -1.82614e-12)
(0 0 -1.8264e-12)
(0 0 -2.73998e-12)
(0 0 -9.13456e-13)
(0 0 -1.82717e-12)
(0 0 -1.82743e-12)
(0 0 -1.82768e-12)
(0 0 0)
(0 0 0)
(0 0 0)
(0 0 1.82872e-12)
(0 0 0)
(0 0 0)
(0 0 1.82949e-12)
(0 0 0)
(0 0 -1.83001e-12)
(0 0 0)
(0 0 -1.83053e-12)
(0 0 -2.74618e-12)
(0 0 -2.74657e-12)
(0 0 -4.57827e-12)
(0 0 -3.66314e-12)
(0 0 -5.49549e-12)
(0 0 -4.58023e-12)
(0 0 -5.49705e-12)
(0 0 -6.41414e-12)
(0 0 -4.58218e-12)
(0 0 -2.7497e-12)
(0 0 -3.66679e-12)
(0 0 -9.16828e-13)
(0 0 -9.16959e-13)
(0 0 9.1709e-13)
(0 0 9.17221e-13)
(0 0 0)
(0 0 0)
(0 0 9.17615e-13)
(0 0 0)
(0 0 -9.17878e-13)
(0 0 -9.18009e-13)
(0 0 -9.18141e-13)
(0 0 -1.83655e-12)
(0 0 0)
(0 0 0)
(0 0 0)
(0 0 -1.8376e-12)
(0 0 -9.18933e-13)
(0 0 -2.7572e-12)
(0 0 -1.8384e-12)
(0 0 -9.1933e-13)
(0 0 -1.83893e-12)
(0 0 -1.83919e-12)
(0 0 0)
(0 0 0)
(0 0 0)
(0 0 0)
(0 0 -9.2026e-13)
(0 0 -9.20393e-13)
(0 0 -1.84105e-12)
(0 0 -9.2066e-13)
(0 0 -9.20793e-13)
(0 0 1.84185e-12)
(0 0 0)
(0 0 0)
(0 0 0)
(0 0 0)
(0 0 2.76479e-12)
(0 0 2.76519e-12)
(0 0 1.84373e-12)
(0 0 1.844e-12)
(0 0 2.7664e-12)
(0 0 1.84453e-12)
(0 0 1.8448e-12)
(0 0 1.84507e-12)
(0 0 9.22671e-13)
(0 0 2.76842e-12)
(0 0 1.84588e-12)
(0 0 9.23076e-13)
(0 0 -9.23211e-13)
(0 0 0)
(0 0 0)
(0 0 0)
(0 0 -9.23752e-13)
(0 0 9.23888e-13)
(0 0 1.84805e-12)
(0 0 1.84832e-12)
(0 0 2.77289e-12)
(0 0 3.69773e-12)
(0 0 2.7737e-12)
(0 0 2.77411e-12)
(0 0 3.69936e-12)
(0 0 9.24976e-13)
(0 0 0)
(0 0 9.25249e-13)
(0 0 0)
(0 0 9.25522e-13)
(0 0 1.85132e-12)
(0 0 2.77739e-12)
(0 0 2.7778e-12)
(0 0 1.85214e-12)
(0 0 5.55724e-12)
(0 0 3.70538e-12)
(0 0 3.70593e-12)
(0 0 4.6331e-12)
(0 0 6.4873e-12)
(0 0 5.56137e-12)
(0 0 6.48923e-12)
(0 0 6.49019e-12)
(0 0 5.56385e-12)
(0 0 6.49213e-12)
(0 0 7.42068e-12)
(0 0 6.49406e-12)
(0 0 5.56717e-12)
(0 0 4.64e-12)
(0 0 5.56883e-12)
(0 0 5.56966e-12)
(0 0 6.49891e-12)
(0 0 5.57133e-12)
(0 0 7.42955e-12)
(0 0 5.573e-12)
(0 0 6.5028e-12)
(0 0 5.57467e-12)
(0 0 5.5755e-12)
(0 0 6.50573e-12)
(0 0 7.43623e-12)
(0 0 6.50768e-12)
(0 0 7.43847e-12)
(0 0 8.36954e-12)
(0 0 8.3708e-12)
(0 0 1.02325e-11)
(0 0 1.11644e-11)
(0 0 1.02356e-11)
(0 0 1.02371e-11)
(0 0 9.3079e-12)
(0 0 8.37837e-12)
(0 0 8.37964e-12)
(0 0 1.11745e-11)
(0 0 1.02449e-11)
(0 0 1.21094e-11)
(0 0 1.30429e-11)
(0 0 1.21131e-11)
(0 0 1.02511e-11)
(0 0 1.11847e-11)
(0 0 1.02542e-11)
(0 0 9.32341e-12)
(0 0 1.11898e-11)
(0 0 1.21241e-11)
(0 0 1.02604e-11)
(0 0 9.32909e-12)
(0 0 8.39746e-12)
(0 0 8.39874e-12)
(0 0 6.53335e-12)
(0 0 6.53434e-12)
(0 0 5.60172e-12)
(0 0 6.53634e-12)
(0 0 5.60343e-12)
(0 0 6.53834e-12)
(0 0 6.53934e-12)
(0 0 7.47467e-12)
(0 0 7.47582e-12)
(0 0 7.47696e-12)
(0 0 7.47811e-12)
(0 0 8.41416e-12)
(0 0 7.4804e-12)
(0 0 9.35194e-12)
(0 0 9.35338e-12)
(0 0 7.48385e-12)
(0 0 9.35626e-12)
(0 0 8.42193e-12)
(0 0 8.42322e-12)
(0 0 1.02966e-11)
(0 0 8.42582e-12)
(0 0 7.49078e-12)
(0 0 6.55544e-12)
(0 0 5.61982e-12)
(0 0 7.49425e-12)
(0 0 7.49541e-12)
(0 0 5.62243e-12)
(0 0 6.56051e-12)
(0 0 7.49889e-12)
(0 0 8.43756e-12)
(0 0 8.43887e-12)
(0 0 8.44018e-12)
(0 0 7.50355e-12)
(0 0 4.69045e-12)
(0 0 3.75294e-12)
(0 0 5.63029e-12)
(0 0 4.69263e-12)
(0 0 7.50939e-12)
(0 0 7.51056e-12)
(0 0 8.45069e-12)
(0 0 1.12693e-11)
(0 0 1.03318e-11)
(0 0 1.03335e-11)
(0 0 1.12746e-11)
(0 0 1.22161e-11)
(0 0 1.03383e-11)
(0 0 1.03399e-11)
(0 0 1.03416e-11)
(0 0 8.4626e-12)
(0 0 8.46392e-12)
(0 0 7.52467e-12)
(0 0 8.46658e-12)
(0 0 6.58616e-12)
(0 0 7.52822e-12)
(0 0 8.47058e-12)
(0 0 8.47191e-12)
(0 0 7.53177e-12)
(0 0 8.47458e-12)
(0 0 7.53415e-12)
(0 0 8.47726e-12)
(0 0 7.53653e-12)
(0 0 6.5955e-12)
(0 0 5.65418e-12)
(0 0 5.65508e-12)
(0 0 6.59864e-12)
(0 0 5.65687e-12)
(0 0 5.65777e-12)
(0 0 2.82933e-12)
(0 0 1.88652e-12)
(0 0 1.88682e-12)
(0 0 0)
(0 0 -9.4371e-13)
(0 0 -2.83158e-12)
(0 0 -4.72005e-12)
(0 0 -6.60912e-12)
(0 0 -3.77724e-12)
(0 0 -5.66677e-12)
(0 0 -7.5569e-12)
(0 0 -5.66858e-12)
(0 0 -5.66948e-12)
(0 0 -6.61545e-12)
(0 0 -8.50694e-12)
(0 0 -7.56294e-12)
(0 0 -9.45519e-12)
(0 0 -8.51103e-12)
(0 0 -8.5124e-12)
(0 0 -8.51376e-12)
(0 0 -8.51513e-12)
(0 0 -7.57022e-12)
(0 0 -7.57144e-12)
(0 0 -6.62607e-12)
(0 0 -5.6804e-12)
(0 0 -6.62821e-12)
(0 0 -4.73519e-12)
(0 0 -4.73596e-12)
(0 0 -4.73672e-12)
(0 0 -4.73749e-12)
(0 0 -3.7906e-12)
(0 0 -2.84341e-12)
(0 0 -2.84387e-12)
(0 0 -4.74055e-12)
(0 0 -2.84479e-12)
(0 0 -9.48417e-13)
(0 0 -9.48571e-13)
(0 0 0)
(0 0 -9.48879e-13)
(0 0 -2.8471e-12)
(0 0 -9.49187e-13)
(0 0 -1.89868e-12)
(0 0 0)
(0 0 -1.8993e-12)
(0 0 -1.89961e-12)
(0 0 -1.89992e-12)
(0 0 -1.90023e-12)
(0 0 -1.90054e-12)
(0 0 -2.85128e-12)
(0 0 -2.85174e-12)
(0 0 -1.90147e-12)
(0 0 -9.50892e-13)
(0 0 -1.9021e-12)
(0 0 -1.90241e-12)
(0 0 -3.80544e-12)
(0 0 -1.90303e-12)
(0 0 -3.80669e-12)
(0 0 -2.85548e-12)
(0 0 -3.80794e-12)
(0 0 -3.80856e-12)
(0 0 -5.71379e-12)
(0 0 -6.66718e-12)
(0 0 -5.71567e-12)
(0 0 -5.71661e-12)
(0 0 -4.76463e-12)
(0 0 -5.7185e-12)
(0 0 -5.71944e-12)
(0 0 -4.76699e-12)
(0 0 -6.67489e-12)
(0 0 -6.67599e-12)
(0 0 -6.6771e-12)
(0 0 -5.72418e-12)
(0 0 -7.6335e-12)
(0 0 -8.58911e-12)
(0 0 -8.59054e-12)
(0 0 -6.68264e-12)
(0 0 -6.68375e-12)
(0 0 -5.72988e-12)
(0 0 -5.73084e-12)
(0 0 -6.68709e-12)
(0 0 -6.68821e-12)
(0 0 -6.68932e-12)
(0 0 -5.73466e-12)
(0 0 -4.77968e-12)
(0 0 -3.82438e-12)