# Probe 0 (0 0 -0.006)
# Probe 1 (0 0 -0.0058)
# Probe 2 (0 0 -0.0056)
# Probe 3 (0 0 -0.0054)
# Probe 4 (0 0 -0.0052)
# Probe 5 (0 0 -0.005)
# Probe 6 (0 0 -0.0048)
# Probe 7 (0 0 -0.0046)
# Probe 8 (0 0 -0.0044)
# Probe 9 (0 0 -0.0042)
# Probe 10 (0 0 -0.004)
# Probe 11 (0 0 -0.003)
# Probe 12 (0 0 -0.002)
# Probe 13 (0 0 -0.001)
# Probe 14 (0 0 0)
# Probe 15 (0 0 0.001)
# Probe 16 (0 0 0.002)
# Probe 17 (0 0 0.003)
# Probe 18 (0 0 0.004)
# Probe 19 (0 0 0.005)
# Probe 20 (0 0 0.006)
# Probe 21 (0 0 0.007)
# Probe 22 (0 0 0.008)
# Probe 23 (0 0 0.009)
#       Probe             0             1             2             3             4             5             6             7             8             9            10            11            12            13            14            15            16            17            18            19            20            21            22            23
#        Time
        1e-06     0.0757228     0.0744214     0.0730154     0.0715087     0.0698691     0.0680043     0.0658206     0.0630757     0.0590315     0.0539985     0.0517066     0.0487798     0.0480789     0.0478979     0.0479516     0.0481377     0.0484084     0.0487356     0.0491048     0.0495057     0.0499295     0.0503719     0.0508281      0.051298
