# Probe 0 (0 0 -0.006)
# Probe 1 (0 0 -0.0058)
# Probe 2 (0 0 -0.0056)
# Probe 3 (0 0 -0.0054)
# Probe 4 (0 0 -0.0052)
# Probe 5 (0 0 -0.005)
# Probe 6 (0 0 -0.0048)
# Probe 7 (0 0 -0.0046)
# Probe 8 (0 0 -0.0044)
# Probe 9 (0 0 -0.0042)
# Probe 10 (0 0 -0.004)
# Probe 11 (0 0 -0.003)
# Probe 12 (0 0 -0.002)
# Probe 13 (0 0 -0.001)
# Probe 14 (0 0 0)
# Probe 15 (0 0 0.001)
# Probe 16 (0 0 0.002)
# Probe 17 (0 0 0.003)
# Probe 18 (0 0 0.004)
# Probe 19 (0 0 0.005)
# Probe 20 (0 0 0.006)
# Probe 21 (0 0 0.007)
# Probe 22 (0 0 0.008)
# Probe 23 (0 0 0.009)
#       Probe             0             1             2             3             4             5             6             7             8             9            10            11            12            13            14            15            16            17            18            19            20            21            22            23
#        Time
        1e-06       2269.58       2271.21       2272.62       2273.71       2274.41       2274.56       2273.85       2271.55       2265.42       2254.56       2250.49       2256.98        2271.4       2287.83       2305.17       2322.99       2341.13       2359.35       2377.69       2396.11       2414.49       2432.84       2451.11        2469.4
