# Probe 0 (0 0 -0.006)
# Probe 1 (0 0 -0.0058)
# Probe 2 (0 0 -0.0056)
# Probe 3 (0 0 -0.0054)
# Probe 4 (0 0 -0.0052)
# Probe 5 (0 0 -0.005)
# Probe 6 (0 0 -0.0048)
# Probe 7 (0 0 -0.0046)
# Probe 8 (0 0 -0.0044)
# Probe 9 (0 0 -0.0042)
# Probe 10 (0 0 -0.004)
# Probe 11 (0 0 -0.003)
# Probe 12 (0 0 -0.002)
# Probe 13 (0 0 -0.001)
# Probe 14 (0 0 0)
# Probe 15 (0 0 0.001)
# Probe 16 (0 0 0.002)
# Probe 17 (0 0 0.003)
# Probe 18 (0 0 0.004)
# Probe 19 (0 0 0.005)
# Probe 20 (0 0 0.006)
# Probe 21 (0 0 0.007)
# Probe 22 (0 0 0.008)
# Probe 23 (0 0 0.009)
#       Probe             0             1             2             3             4             5             6             7             8             9            10            11            12            13            14            15            16            17            18            19            20            21            22            23
#        Time
        1e-06       4153.82       4321.42       4534.97       4812.03       5189.41       5754.22       6695.56        8612.7       14064.6       13248.6       7934.97       4113.22       3486.52       3223.86       3081.32       2994.23       2937.54        2899.7       2874.09       2857.02        2846.2       2840.03       2837.43       2837.62
