/*--------------------------------*- C++ -*----------------------------------*\
| =========                 |                                                 |
| \\      /  F ield         | OpenFOAM: The Open Source CFD Toolbox           |
|  \\    /   O peration     | Version:  2.3.1                                 |
|   \\  /    A nd           | Web:      www.OpenFOAM.org                      |
|    \\/     M anipulation  |                                                 |
\*---------------------------------------------------------------------------*/
FoamFile
{
    version     2.0;
    format      ascii;
    class       volScalarField;
    object      T;
}
// * * * * * * * * * * * * * * * * * * * * * * * * * * * * * * * * * * * * * //

dimensions      [0 0 0 1 0 0 0];

internalField   nonuniform List<scalar>
10000
(
500.010000
500.020000
500.030000
500.040000
500.050000
500.060000
500.070000
500.080000
500.090000
500.100000
500.110000
500.120000
500.130000
500.140000
500.150000
500.160000
500.170000
500.180000
500.190000
500.200000
500.210000
500.220000
500.230000
500.240000
500.250000
500.260000
500.270000
500.280000
500.290000
500.300000
500.310000
500.320000
500.330000
500.340000
500.350000
500.360000
500.370000
500.380000
500.390000
500.400000
500.410000
500.420000
500.430000
500.440000
500.450000
500.460000
500.470000
500.480000
500.490000
500.500000
500.510000
500.520000
500.530000
500.540000
500.550000
500.560000
500.570000
500.580000
500.590000
500.600000
500.610000
500.620000
500.630000
500.640000
500.650000
500.660000
500.670000
500.680000
500.690000
500.700000
500.710000
500.720000
500.730000
500.740000
500.750000
500.760000
500.770000
500.780000
500.790000
500.800000
500.810000
500.820000
500.830000
500.840000
500.850000
500.860000
500.870000
500.880000
500.890000
500.900000
500.910000
500.920000
500.930000
500.940000
500.950000
500.960000
500.970000
500.980000
500.990000
501.000000
501.010000
501.020000
501.030000
501.040000
501.050000
501.060000
501.070000
501.080000
501.090000
501.100000
501.110000
501.120000
501.130000
501.140000
501.150000
501.160000
501.170000
501.180000
501.190000
501.200000
501.210000
501.220000
501.230000
501.240000
501.250000
501.260000
501.270000
501.280000
501.290000
501.300000
501.310000
501.320000
501.330000
501.340000
501.350000
501.360000
501.370000
501.380000
501.390000
501.400000
501.410000
501.420000
501.430000
501.440000
501.450000
501.460000
501.470000
501.480000
501.490000
501.500000
501.510000
501.520000
501.530000
501.540000
501.550000
501.560000
501.570000
501.580000
501.590000
501.600000
501.610000
501.620000
501.630000
501.640000
501.650000
501.660000
501.670000
501.680000
501.690000
501.700000
501.710000
501.720000
501.730000
501.740000
501.750000
501.760000
501.770000
501.780000
501.790000
501.800000
501.810000
501.820000
501.830000
501.840000
501.850000
501.860000
501.870000
501.880000
501.890000
501.900000
501.910000
501.920000
501.930000
501.940000
501.950000
501.960000
501.970000
501.980000
501.990000
502.000000
502.010000
502.020000
502.030000
502.040000
502.050000
502.060000
502.070000
502.080000
502.090000
502.100000
502.110000
502.120000
502.130000
502.140000
502.150000
502.160000
502.170000
502.180000
502.190000
502.200000
502.210000
502.220000
502.230000
502.240000
502.250000
502.260000
502.270000
502.280000
502.290000
502.300000
502.310000
502.320000
502.330000
502.340000
502.350000
502.360000
502.370000
502.380000
502.390000
502.400000
502.410000
502.420000
502.430000
502.440000
502.450000
502.460000
502.470000
502.480000
502.490000
502.500000
502.510000
502.520000
502.530000
502.540000
502.550000
502.560000
502.570000
502.580000
502.590000
502.600000
502.610000
502.620000
502.630000
502.640000
502.650000
502.660000
502.670000
502.680000
502.690000
502.700000
502.710000
502.720000
502.730000
502.740000
502.750000
502.760000
502.770000
502.780000
502.790000
502.800000
502.810000
502.820000
502.830000
502.840000
502.850000
502.860000
502.870000
502.880000
502.890000
502.900000
502.910000
502.920000
502.930000
502.940000
502.950000
502.960000
502.970000
502.980000
502.990000
503.000000
503.010000
503.020000
503.030000
503.040000
503.050000
503.060000
503.070000
503.080000
503.090000
503.100000
503.110000
503.120000
503.130000
503.140000
503.150000
503.160000
503.170000
503.180000
503.190000
503.200000
503.210000
503.220000
503.230000
503.240000
503.250000
503.260000
503.270000
503.280000
503.290000
503.300000
503.310000
503.320000
503.330000
503.340000
503.350000
503.360000
503.370000
503.380000
503.390000
503.400000
503.410000
503.420000
503.430000
503.440000
503.450000
503.460000
503.470000
503.480000
503.490000
503.500000
503.510000
503.520000
503.530000
503.540000
503.550000
503.560000
503.570000
503.580000
503.590000
503.600000
503.610000
503.620000
503.630000
503.640000
503.650000
503.660000
503.670000
503.680000
503.690000
503.700000
503.710000
503.720000
503.730000
503.740000
503.750000
503.760000
503.770000
503.780000
503.790000
503.800000
503.810000
503.820000
503.830000
503.840000
503.850000
503.860000
503.870000
503.880000
503.890000
503.900000
503.910000
503.920000
503.930000
503.940000
503.950000
503.960000
503.970000
503.980000
503.990000
504.000000
504.010000
504.020000
504.030000
504.040000
504.050000
504.060000
504.070000
504.080000
504.090000
504.100000
504.110000
504.120000
504.130000
504.140000
504.150000
504.160000
504.170000
504.180000
504.190000
504.200000
504.210000
504.220000
504.230000
504.240000
504.250000
504.260000
504.270000
504.280000
504.290000
504.300000
504.310000
504.320000
504.330000
504.340000
504.350000
504.360000
504.370000
504.380000
504.390000
504.400000
504.410000
504.420000
504.430000
504.440000
504.450000
504.460000
504.470000
504.480000
504.490000
504.500000
504.510000
504.520000
504.530000
504.540000
504.550000
504.560000
504.570000
504.580000
504.590000
504.600000
504.610000
504.620000
504.630000
504.640000
504.650000
504.660000
504.670000
504.680000
504.690000
504.700000
504.710000
504.720000
504.730000
504.740000
504.750000
504.760000
504.770000
504.780000
504.790000
504.800000
504.810000
504.820000
504.830000
504.840000
504.850000
504.860000
504.870000
504.880000
504.890000
504.900000
504.910000
504.920000
504.930000
504.940000
504.950000
504.960000
504.970000
504.980000
504.990000
505.000000
505.010000
505.020000
505.030000
505.040000
505.050000
505.060000
505.070000
505.080000
505.090000
505.100000
505.110000
505.120000
505.130000
505.140000
505.150000
505.160000
505.170000
505.180000
505.190000
505.200000
505.210000
505.220000
505.230000
505.240000
505.250000
505.260000
505.270000
505.280000
505.290000
505.300000
505.310000
505.320000
505.330000
505.340000
505.350000
505.360000
505.370000
505.380000
505.390000
505.400000
505.410000
505.420000
505.430000
505.440000
505.450000
505.460000
505.470000
505.480000
505.490000
505.500000
505.510000
505.520000
505.530000
505.540000
505.550000
505.560000
505.570000
505.580000
505.590000
505.600000
505.610000
505.620000
505.630000
505.640000
505.650000
505.660000
505.670000
505.680000
505.690000
505.700000
505.710000
505.720000
505.730000
505.740000
505.750000
505.760000
505.770000
505.780000
505.790000
505.800000
505.810000
505.820000
505.830000
505.840000
505.850000
505.860000
505.870000
505.880000
505.890000
505.900000
505.910000
505.920000
505.930000
505.940000
505.950000
505.960000
505.970000
505.980000
505.990000
506.000000
506.010000
506.020000
506.030000
506.040000
506.050000
506.060000
506.070000
506.080000
506.090000
506.100000
506.110000
506.120000
506.130000
506.140000
506.150000
506.160000
506.170000
506.180000
506.190000
506.200000
506.210000
506.220000
506.230000
506.240000
506.250000
506.260000
506.270000
506.280000
506.290000
506.300000
506.310000
506.320000
506.330000
506.340000
506.350000
506.360000
506.370000
506.380000
506.390000
506.400000
506.410000
506.420000
506.430000
506.440000
506.450000
506.460000
506.470000
506.480000
506.490000
506.500000
506.510000
506.520000
506.530000
506.540000
506.550000
506.560000
506.570000
506.580000
506.590000
506.600000
506.610000
506.620000
506.630000
506.640000
506.650000
506.660000
506.670000
506.680000
506.690000
506.700000
506.710000
506.720000
506.730000
506.740000
506.750000
506.760000
506.770000
506.780000
506.790000
506.800000
506.810000
506.820000
506.830000
506.840000
506.850000
506.860000
506.870000
506.880000
506.890000
506.900000
506.910000
506.920000
506.930000
506.940000
506.950000
506.960000
506.970000
506.980000
506.990000
507.000000
507.010000
507.020000
507.030000
507.040000
507.050000
507.060000
507.070000
507.080000
507.090000
507.100000
507.110000
507.120000
507.130000
507.140000
507.150000
507.160000
507.170000
507.180000
507.190000
507.200000
507.210000
507.220000
507.230000
507.240000
507.250000
507.260000
507.270000
507.280000
507.290000
507.300000
507.310000
507.320000
507.330000
507.340000
507.350000
507.360000
507.370000
507.380000
507.390000
507.400000
507.410000
507.420000
507.430000
507.440000
507.450000
507.460000
507.470000
507.480000
507.490000
507.500000
507.510000
507.520000
507.530000
507.540000
507.550000
507.560000
507.570000
507.580000
507.590000
507.600000
507.610000
507.620000
507.630000
507.640000
507.650000
507.660000
507.670000
507.680000
507.690000
507.700000
507.710000
507.720000
507.730000
507.740000
507.750000
507.760000
507.770000
507.780000
507.790000
507.800000
507.810000
507.820000
507.830000
507.840000
507.850000
507.860000
507.870000
507.880000
507.890000
507.900000
507.910000
507.920000
507.930000
507.940000
507.950000
507.960000
507.970000
507.980000
507.990000
508.000000
508.010000
508.020000
508.030000
508.040000
508.050000
508.060000
508.070000
508.080000
508.090000
508.100000
508.110000
508.120000
508.130000
508.140000
508.150000
508.160000
508.170000
508.180000
508.190000
508.200000
508.210000
508.220000
508.230000
508.240000
508.250000
508.260000
508.270000
508.280000
508.290000
508.300000
508.310000
508.320000
508.330000
508.340000
508.350000
508.360000
508.370000
508.380000
508.390000
508.400000
508.410000
508.420000
508.430000
508.440000
508.450000
508.460000
508.470000
508.480000
508.490000
508.500000
508.510000
508.520000
508.530000
508.540000
508.550000
508.560000
508.570000
508.580000
508.590000
508.600000
508.610000
508.620000
508.630000
508.640000
508.650000
508.660000
508.670000
508.680000
508.690000
508.700000
508.710000
508.720000
508.730000
508.740000
508.750000
508.760000
508.770000
508.780000
508.790000
508.800000
508.810000
508.820000
508.830000
508.840000
508.850000
508.860000
508.870000
508.880000
508.890000
508.900000
508.910000
508.920000
508.930000
508.940000
508.950000
508.960000
508.970000
508.980000
508.990000
509.000000
509.010000
509.020000
509.030000
509.040000
509.050000
509.060000
509.070000
509.080000
509.090000
509.100000
509.110000
509.120000
509.130000
509.140000
509.150000
509.160000
509.170000
509.180000
509.190000
509.200000
509.210000
509.220000
509.230000
509.240000
509.250000
509.260000
509.270000
509.280000
509.290000
509.300000
509.310000
509.320000
509.330000
509.340000
509.350000
509.360000
509.370000
509.380000
509.390000
509.400000
509.410000
509.420000
509.430000
509.440000
509.450000
509.460000
509.470000
509.480000
509.490000
509.500000
509.510000
509.520000
509.530000
509.540000
509.550000
509.560000
509.570000
509.580000
509.590000
509.600000
509.610000
509.620000
509.630000
509.640000
509.650000
509.660000
509.670000
509.680000
509.690000
509.700000
509.710000
509.720000
509.730000
509.740000
509.750000
509.760000
509.770000
509.780000
509.790000
509.800000
509.810000
509.820000
509.830000
509.840000
509.850000
509.860000
509.870000
509.880000
509.890000
509.900000
509.910000
509.920000
509.930000
509.940000
509.950000
509.960000
509.970000
509.980000
509.990000
510.000000
510.010000
510.020000
510.030000
510.040000
510.050000
510.060000
510.070000
510.080000
510.090000
510.100000
510.110000
510.120000
510.130000
510.140000
510.150000
510.160000
510.170000
510.180000
510.190000
510.200000
510.210000
510.220000
510.230000
510.240000
510.250000
510.260000
510.270000
510.280000
510.290000
510.300000
510.310000
510.320000
510.330000
510.340000
510.350000
510.360000
510.370000
510.380000
510.390000
510.400000
510.410000
510.420000
510.430000
510.440000
510.450000
510.460000
510.470000
510.480000
510.490000
510.500000
510.510000
510.520000
510.530000
510.540000
510.550000
510.560000
510.570000
510.580000
510.590000
510.600000
510.610000
510.620000
510.630000
510.640000
510.650000
510.660000
510.670000
510.680000
510.690000
510.700000
510.710000
510.720000
510.730000
510.740000
510.750000
510.760000
510.770000
510.780000
510.790000
510.800000
510.810000
510.820000
510.830000
510.840000
510.850000
510.860000
510.870000
510.880000
510.890000
510.900000
510.910000
510.920000
510.930000
510.940000
510.950000
510.960000
510.970000
510.980000
510.990000
511.000000
511.010000
511.020000
511.030000
511.040000
511.050000
511.060000
511.070000
511.080000
511.090000
511.100000
511.110000
511.120000
511.130000
511.140000
511.150000
511.160000
511.170000
511.180000
511.190000
511.200000
511.210000
511.220000
511.230000
511.240000
511.250000
511.260000
511.270000
511.280000
511.290000
511.300000
511.310000
511.320000
511.330000
511.340000
511.350000
511.360000
511.370000
511.380000
511.390000
511.400000
511.410000
511.420000
511.430000
511.440000
511.450000
511.460000
511.470000
511.480000
511.490000
511.500000
511.510000
511.520000
511.530000
511.540000
511.550000
511.560000
511.570000
511.580000
511.590000
511.600000
511.610000
511.620000
511.630000
511.640000
511.650000
511.660000
511.670000
511.680000
511.690000
511.700000
511.710000
511.720000
511.730000
511.740000
511.750000
511.760000
511.770000
511.780000
511.790000
511.800000
511.810000
511.820000
511.830000
511.840000
511.850000
511.860000
511.870000
511.880000
511.890000
511.900000
511.910000
511.920000
511.930000
511.940000
511.950000
511.960000
511.970000
511.980000
511.990000
512.000000
512.010000
512.020000
512.030000
512.040000
512.050000
512.060000
512.070000
512.080000
512.090000
512.100000
512.110000
512.120000
512.130000
512.140000
512.150000
512.160000
512.170000
512.180000
512.190000
512.200000
512.210000
512.220000
512.230000
512.240000
512.250000
512.260000
512.270000
512.280000
512.290000
512.300000
512.310000
512.320000
512.330000
512.340000
512.350000
512.360000
512.370000
512.380000
512.390000
512.400000
512.410000
512.420000
512.430000
512.440000
512.450000
512.460000
512.470000
512.480000
512.490000
512.500000
512.510000
512.520000
512.530000
512.540000
512.550000
512.560000
512.570000
512.580000
512.590000
512.600000
512.610000
512.620000
512.630000
512.640000
512.650000
512.660000
512.670000
512.680000
512.690000
512.700000
512.710000
512.720000
512.730000
512.740000
512.750000
512.760000
512.770000
512.780000
512.790000
512.800000
512.810000
512.820000
512.830000
512.840000
512.850000
512.860000
512.870000
512.880000
512.890000
512.900000
512.910000
512.920000
512.930000
512.940000
512.950000
512.960000
512.970000
512.980000
512.990000
513.000000
513.010000
513.020000
513.030000
513.040000
513.050000
513.060000
513.070000
513.080000
513.090000
513.100000
513.110000
513.120000
513.130000
513.140000
513.150000
513.160000
513.170000
513.180000
513.190000
513.200000
513.210000
513.220000
513.230000
513.240000
513.250000
513.260000
513.270000
513.280000
513.290000
513.300000
513.310000
513.320000
513.330000
513.340000
513.350000
513.360000
513.370000
513.380000
513.390000
513.400000
513.410000
513.420000
513.430000
513.440000
513.450000
513.460000
513.470000
513.480000
513.490000
513.500000
513.510000
513.520000
513.530000
513.540000
513.550000
513.560000
513.570000
513.580000
513.590000
513.600000
513.610000
513.620000
513.630000
513.640000
513.650000
513.660000
513.670000
513.680000
513.690000
513.700000
513.710000
513.720000
513.730000
513.740000
513.750000
513.760000
513.770000
513.780000
513.790000
513.800000
513.810000
513.820000
513.830000
513.840000
513.850000
513.860000
513.870000
513.880000
513.890000
513.900000
513.910000
513.920000
513.930000
513.940000
513.950000
513.960000
513.970000
513.980000
513.990000
514.000000
514.010000
514.020000
514.030000
514.040000
514.050000
514.060000
514.070000
514.080000
514.090000
514.100000
514.110000
514.120000
514.130000
514.140000
514.150000
514.160000
514.170000
514.180000
514.190000
514.200000
514.210000
514.220000
514.230000
514.240000
514.250000
514.260000
514.270000
514.280000
514.290000
514.300000
514.310000
514.320000
514.330000
514.340000
514.350000
514.360000
514.370000
514.380000
514.390000
514.400000
514.410000
514.420000
514.430000
514.440000
514.450000
514.460000
514.470000
514.480000
514.490000
514.500000
514.510000
514.520000
514.530000
514.540000
514.550000
514.560000
514.570000
514.580000
514.590000
514.600000
514.610000
514.620000
514.630000
514.640000
514.650000
514.660000
514.670000
514.680000
514.690000
514.700000
514.710000
514.720000
514.730000
514.740000
514.750000
514.760000
514.770000
514.780000
514.790000
514.800000
514.810000
514.820000
514.830000
514.840000
514.850000
514.860000
514.870000
514.880000
514.890000
514.900000
514.910000
514.920000
514.930000
514.940000
514.950000
514.960000
514.970000
514.980000
514.990000
515.000000
515.010000
515.020000
515.030000
515.040000
515.050000
515.060000
515.070000
515.080000
515.090000
515.100000
515.110000
515.120000
515.130000
515.140000
515.150000
515.160000
515.170000
515.180000
515.190000
515.200000
515.210000
515.220000
515.230000
515.240000
515.250000
515.260000
515.270000
515.280000
515.290000
515.300000
515.310000
515.320000
515.330000
515.340000
515.350000
515.360000
515.370000
515.380000
515.390000
515.400000
515.410000
515.420000
515.430000
515.440000
515.450000
515.460000
515.470000
515.480000
515.490000
515.500000
515.510000
515.520000
515.530000
515.540000
515.550000
515.560000
515.570000
515.580000
515.590000
515.600000
515.610000
515.620000
515.630000
515.640000
515.650000
515.660000
515.670000
515.680000
515.690000
515.700000
515.710000
515.720000
515.730000
515.740000
515.750000
515.760000
515.770000
515.780000
515.790000
515.800000
515.810000
515.820000
515.830000
515.840000
515.850000
515.860000
515.870000
515.880000
515.890000
515.900000
515.910000
515.920000
515.930000
515.940000
515.950000
515.960000
515.970000
515.980000
515.990000
516.000000
516.010000
516.020000
516.030000
516.040000
516.050000
516.060000
516.070000
516.080000
516.090000
516.100000
516.110000
516.120000
516.130000
516.140000
516.150000
516.160000
516.170000
516.180000
516.190000
516.200000
516.210000
516.220000
516.230000
516.240000
516.250000
516.260000
516.270000
516.280000
516.290000
516.300000
516.310000
516.320000
516.330000
516.340000
516.350000
516.360000
516.370000
516.380000
516.390000
516.400000
516.410000
516.420000
516.430000
516.440000
516.450000
516.460000
516.470000
516.480000
516.490000
516.500000
516.510000
516.520000
516.530000
516.540000
516.550000
516.560000
516.570000
516.580000
516.590000
516.600000
516.610000
516.620000
516.630000
516.640000
516.650000
516.660000
516.670000
516.680000
516.690000
516.700000
516.710000
516.720000
516.730000
516.740000
516.750000
516.760000
516.770000
516.780000
516.790000
516.800000
516.810000
516.820000
516.830000
516.840000
516.850000
516.860000
516.870000
516.880000
516.890000
516.900000
516.910000
516.920000
516.930000
516.940000
516.950000
516.960000
516.970000
516.980000
516.990000
517.000000
517.010000
517.020000
517.030000
517.040000
517.050000
517.060000
517.070000
517.080000
517.090000
517.100000
517.110000
517.120000
517.130000
517.140000
517.150000
517.160000
517.170000
517.180000
517.190000
517.200000
517.210000
517.220000
517.230000
517.240000
517.250000
517.260000
517.270000
517.280000
517.290000
517.300000
517.310000
517.320000
517.330000
517.340000
517.350000
517.360000
517.370000
517.380000
517.390000
517.400000
517.410000
517.420000
517.430000
517.440000
517.450000
517.460000
517.470000
517.480000
517.490000
517.500000
517.510000
517.520000
517.530000
517.540000
517.550000
517.560000
517.570000
517.580000
517.590000
517.600000
517.610000
517.620000
517.630000
517.640000
517.650000
517.660000
517.670000
517.680000
517.690000
517.700000
517.710000
517.720000
517.730000
517.740000
517.750000
517.760000
517.770000
517.780000
517.790000
517.800000
517.810000
517.820000
517.830000
517.840000
517.850000
517.860000
517.870000
517.880000
517.890000
517.900000
517.910000
517.920000
517.930000
517.940000
517.950000
517.960000
517.970000
517.980000
517.990000
518.000000
518.010000
518.020000
518.030000
518.040000
518.050000
518.060000
518.070000
518.080000
518.090000
518.100000
518.110000
518.120000
518.130000
518.140000
518.150000
518.160000
518.170000
518.180000
518.190000
518.200000
518.210000
518.220000
518.230000
518.240000
518.250000
518.260000
518.270000
518.280000
518.290000
518.300000
518.310000
518.320000
518.330000
518.340000
518.350000
518.360000
518.370000
518.380000
518.390000
518.400000
518.410000
518.420000
518.430000
518.440000
518.450000
518.460000
518.470000
518.480000
518.490000
518.500000
518.510000
518.520000
518.530000
518.540000
518.550000
518.560000
518.570000
518.580000
518.590000
518.600000
518.610000
518.620000
518.630000
518.640000
518.650000
518.660000
518.670000
518.680000
518.690000
518.700000
518.710000
518.720000
518.730000
518.740000
518.750000
518.760000
518.770000
518.780000
518.790000
518.800000
518.810000
518.820000
518.830000
518.840000
518.850000
518.860000
518.870000
518.880000
518.890000
518.900000
518.910000
518.920000
518.930000
518.940000
518.950000
518.960000
518.970000
518.980000
518.990000
519.000000
519.010000
519.020000
519.030000
519.040000
519.050000
519.060000
519.070000
519.080000
519.090000
519.100000
519.110000
519.120000
519.130000
519.140000
519.150000
519.160000
519.170000
519.180000
519.190000
519.200000
519.210000
519.220000
519.230000
519.240000
519.250000
519.260000
519.270000
519.280000
519.290000
519.300000
519.310000
519.320000
519.330000
519.340000
519.350000
519.360000
519.370000
519.380000
519.390000
519.400000
519.410000
519.420000
519.430000
519.440000
519.450000
519.460000
519.470000
519.480000
519.490000
519.500000
519.510000
519.520000
519.530000
519.540000
519.550000
519.560000
519.570000
519.580000
519.590000
519.600000
519.610000
519.620000
519.630000
519.640000
519.650000
519.660000
519.670000
519.680000
519.690000
519.700000
519.710000
519.720000
519.730000
519.740000
519.750000
519.760000
519.770000
519.780000
519.790000
519.800000
519.810000
519.820000
519.830000
519.840000
519.850000
519.860000
519.870000
519.880000
519.890000
519.900000
519.910000
519.920000
519.930000
519.940000
519.950000
519.960000
519.970000
519.980000
519.990000
520.000000
520.010000
520.020000
520.030000
520.040000
520.050000
520.060000
520.070000
520.080000
520.090000
520.100000
520.110000
520.120000
520.130000
520.140000
520.150000
520.160000
520.170000
520.180000
520.190000
520.200000
520.210000
520.220000
520.230000
520.240000
520.250000
520.260000
520.270000
520.280000
520.290000
520.300000
520.310000
520.320000
520.330000
520.340000
520.350000
520.360000
520.370000
520.380000
520.390000
520.400000
520.410000
520.420000
520.430000
520.440000
520.450000
520.460000
520.470000
520.480000
520.490000
520.500000
520.510000
520.520000
520.530000
520.540000
520.550000
520.560000
520.570000
520.580000
520.590000
520.600000
520.610000
520.620000
520.630000
520.640000
520.650000
520.660000
520.670000
520.680000
520.690000
520.700000
520.710000
520.720000
520.730000
520.740000
520.750000
520.760000
520.770000
520.780000
520.790000
520.800000
520.810000
520.820000
520.830000
520.840000
520.850000
520.860000
520.870000
520.880000
520.890000
520.900000
520.910000
520.920000
520.930000
520.940000
520.950000
520.960000
520.970000
520.980000
520.990000
521.000000
521.010000
521.020000
521.030000
521.040000
521.050000
521.060000
521.070000
521.080000
521.090000
521.100000
521.110000
521.120000
521.130000
521.140000
521.150000
521.160000
521.170000
521.180000
521.190000
521.200000
521.210000
521.220000
521.230000
521.240000
521.250000
521.260000
521.270000
521.280000
521.290000
521.300000
521.310000
521.320000
521.330000
521.340000
521.350000
521.360000
521.370000
521.380000
521.390000
521.400000
521.410000
521.420000
521.430000
521.440000
521.450000
521.460000
521.470000
521.480000
521.490000
521.500000
521.510000
521.520000
521.530000
521.540000
521.550000
521.560000
521.570000
521.580000
521.590000
521.600000
521.610000
521.620000
521.630000
521.640000
521.650000
521.660000
521.670000
521.680000
521.690000
521.700000
521.710000
521.720000
521.730000
521.740000
521.750000
521.760000
521.770000
521.780000
521.790000
521.800000
521.810000
521.820000
521.830000
521.840000
521.850000
521.860000
521.870000
521.880000
521.890000
521.900000
521.910000
521.920000
521.930000
521.940000
521.950000
521.960000
521.970000
521.980000
521.990000
522.000000
522.010000
522.020000
522.030000
522.040000
522.050000
522.060000
522.070000
522.080000
522.090000
522.100000
522.110000
522.120000
522.130000
522.140000
522.150000
522.160000
522.170000
522.180000
522.190000
522.200000
522.210000
522.220000
522.230000
522.240000
522.250000
522.260000
522.270000
522.280000
522.290000
522.300000
522.310000
522.320000
522.330000
522.340000
522.350000
522.360000
522.370000
522.380000
522.390000
522.400000
522.410000
522.420000
522.430000
522.440000
522.450000
522.460000
522.470000
522.480000
522.490000
522.500000
522.510000
522.520000
522.530000
522.540000
522.550000
522.560000
522.570000
522.580000
522.590000
522.600000
522.610000
522.620000
522.630000
522.640000
522.650000
522.660000
522.670000
522.680000
522.690000
522.700000
522.710000
522.720000
522.730000
522.740000
522.750000
522.760000
522.770000
522.780000
522.790000
522.800000
522.810000
522.820000
522.830000
522.840000
522.850000
522.860000
522.870000
522.880000
522.890000
522.900000
522.910000
522.920000
522.930000
522.940000
522.950000
522.960000
522.970000
522.980000
522.990000
523.000000
523.010000
523.020000
523.030000
523.040000
523.050000
523.060000
523.070000
523.080000
523.090000
523.100000
523.110000
523.120000
523.130000
523.140000
523.150000
523.160000
523.170000
523.180000
523.190000
523.200000
523.210000
523.220000
523.230000
523.240000
523.250000
523.260000
523.270000
523.280000
523.290000
523.300000
523.310000
523.320000
523.330000
523.340000
523.350000
523.360000
523.370000
523.380000
523.390000
523.400000
523.410000
523.420000
523.430000
523.440000
523.450000
523.460000
523.470000
523.480000
523.490000
523.500000
523.510000
523.520000
523.530000
523.540000
523.550000
523.560000
523.570000
523.580000
523.590000
523.600000
523.610000
523.620000
523.630000
523.640000
523.650000
523.660000
523.670000
523.680000
523.690000
523.700000
523.710000
523.720000
523.730000
523.740000
523.750000
523.760000
523.770000
523.780000
523.790000
523.800000
523.810000
523.820000
523.830000
523.840000
523.850000
523.860000
523.870000
523.880000
523.890000
523.900000
523.910000
523.920000
523.930000
523.940000
523.950000
523.960000
523.970000
523.980000
523.990000
524.000000
524.010000
524.020000
524.030000
524.040000
524.050000
524.060000
524.070000
524.080000
524.090000
524.100000
524.110000
524.120000
524.130000
524.140000
524.150000
524.160000
524.170000
524.180000
524.190000
524.200000
524.210000
524.220000
524.230000
524.240000
524.250000
524.260000
524.270000
524.280000
524.290000
524.300000
524.310000
524.320000
524.330000
524.340000
524.350000
524.360000
524.370000
524.380000
524.390000
524.400000
524.410000
524.420000
524.430000
524.440000
524.450000
524.460000
524.470000
524.480000
524.490000
524.500000
524.510000
524.520000
524.530000
524.540000
524.550000
524.560000
524.570000
524.580000
524.590000
524.600000
524.610000
524.620000
524.630000
524.640000
524.650000
524.660000
524.670000
524.680000
524.690000
524.700000
524.710000
524.720000
524.730000
524.740000
524.750000
524.760000
524.770000
524.780000
524.790000
524.800000
524.810000
524.820000
524.830000
524.840000
524.850000
524.860000
524.870000
524.880000
524.890000
524.900000
524.910000
524.920000
524.930000
524.940000
524.950000
524.960000
524.970000
524.980000
524.990000
525.000000
525.010000
525.020000
525.030000
525.040000
525.050000
525.060000
525.070000
525.080000
525.090000
525.100000
525.110000
525.120000
525.130000
525.140000
525.150000
525.160000
525.170000
525.180000
525.190000
525.200000
525.210000
525.220000
525.230000
525.240000
525.250000
525.260000
525.270000
525.280000
525.290000
525.300000
525.310000
525.320000
525.330000
525.340000
525.350000
525.360000
525.370000
525.380000
525.390000
525.400000
525.410000
525.420000
525.430000
525.440000
525.450000
525.460000
525.470000
525.480000
525.490000
525.500000
525.510000
525.520000
525.530000
525.540000
525.550000
525.560000
525.570000
525.580000
525.590000
525.600000
525.610000
525.620000
525.630000
525.640000
525.650000
525.660000
525.670000
525.680000
525.690000
525.700000
525.710000
525.720000
525.730000
525.740000
525.750000
525.760000
525.770000
525.780000
525.790000
525.800000
525.810000
525.820000
525.830000
525.840000
525.850000
525.860000
525.870000
525.880000
525.890000
525.900000
525.910000
525.920000
525.930000
525.940000
525.950000
525.960000
525.970000
525.980000
525.990000
526.000000
526.010000
526.020000
526.030000
526.040000
526.050000
526.060000
526.070000
526.080000
526.090000
526.100000
526.110000
526.120000
526.130000
526.140000
526.150000
526.160000
526.170000
526.180000
526.190000
526.200000
526.210000
526.220000
526.230000
526.240000
526.250000
526.260000
526.270000
526.280000
526.290000
526.300000
526.310000
526.320000
526.330000
526.340000
526.350000
526.360000
526.370000
526.380000
526.390000
526.400000
526.410000
526.420000
526.430000
526.440000
526.450000
526.460000
526.470000
526.480000
526.490000
526.500000
526.510000