/*--------------------------------*- C++ -*----------------------------------*\
| =========                 |                                                 |
| \\      /  F ield         | OpenFOAM: The Open Source CFD Toolbox           |
|  \\    /   O peration     | Version:  2.3.0                                 |
|   \\  /    A nd           | Web:      www.OpenFOAM.org                      |
|    \\/     M anipulation  |                                                 |
\*---------------------------------------------------------------------------*/
FoamFile
{
    version     2.0;
    format      ascii;
    class       volScalarField;
    location    "0";
    object      thermo:Cp;
}
// * * * * * * * * * * * * * * * * * * * * * * * * * * * * * * * * * * * * * //

dimensions      [0 2 -2 -1 0 0 0];

internalField   nonuniform List<scalar> 
10000
(
2903.41
2903.47
2903.52
2903.58
2903.64
2903.7
2903.76
2903.82
2903.88
2903.94
2904
2904.06
2904.12
2904.18
2904.24
2904.3
2904.36
2904.42
2904.48
2904.54
2904.6
2904.66
2904.72
2904.78
2904.84
2904.9
2904.95
2905.01
2905.07
2905.13
2905.19
2905.25
2905.31
2905.37
2905.43
2905.49
2905.55
2905.61
2905.67
2905.73
2905.79
2905.85
2905.91
2905.97
2906.03
2906.09
2906.15
2906.21
2906.27
2906.33
2906.39
2906.45
2906.51
2906.57
2906.63
2906.69
2906.75
2906.81
2906.87
2906.93
2906.99
2907.05
2907.11
2907.17
2907.23
2907.29
2907.35
2907.41
2907.47
2907.53
2907.59
2907.65
2907.71
2907.77
2907.83
2907.89
2907.95
2908.01
2908.07
2908.13
2908.19
2908.25
2908.31
2908.37
2908.43
2908.49
2908.55
2908.61
2908.67
2908.73
2908.79
2908.85
2908.91
2908.97
2909.03
2909.09
2909.15
2909.21
2909.27
2909.33
2909.39
2909.45
2909.51
2909.57
2909.63
2909.69
2909.75
2909.81
2909.87
2909.93
2909.99
2910.05
2910.11
2910.17
2910.23
2910.29
2910.35
2910.41
2910.47
2910.53
2910.59
2910.65
2910.71
2910.77
2910.83
2910.89
2910.95
2911.01
2911.07
2911.13
2911.19
2911.25
2911.31
2911.37
2911.43
2911.49
2911.55
2911.61
2911.67
2911.73
2911.8
2911.86
2911.92
2911.98
2912.04
2912.1
2912.16
2912.22
2912.28
2912.34
2912.4
2912.46
2912.52
2912.58
2912.64
2912.7
2912.76
2912.82
2912.88
2912.94
2913
2913.06
2913.12
2913.18
2913.25
2913.31
2913.37
2913.43
2913.49
2913.55
2913.61
2913.67
2913.73
2913.79
2913.85
2913.91
2913.97
2914.03
2914.09
2914.15
2914.21
2914.27
2914.34
2914.4
2914.46
2914.52
2914.58
2914.64
2914.7
2914.76
2914.82
2914.88
2914.94
2915
2915.06
2915.12
2915.18
2915.25
2915.31
2915.37
2915.43
2915.49
2915.55
2915.61
2915.67
2915.73
2915.79
2915.85
2915.91
2915.97
2916.04
2916.1
2916.16
2916.22
2916.28
2916.34
2916.4
2916.46
2916.52
2916.58
2916.64
2916.7
2916.77
2916.83
2916.89
2916.95
2917.01
2917.07
2917.13
2917.19
2917.25
2917.31
2917.37
2917.44
2917.5
2917.56
2917.62
2917.68
2917.74
2917.8
2917.86
2917.92
2917.98
2918.05
2918.11
2918.17
2918.23
2918.29
2918.35
2918.41
2918.47
2918.53
2918.59
2918.66
2918.72
2918.78
2918.84
2918.9
2918.96
2919.02
2919.08
2919.14
2919.21
2919.27
2919.33
2919.39
2919.45
2919.51
2919.57
2919.63
2919.7
2919.76
2919.82
2919.88
2919.94
2920
2920.06
2920.12
2920.18
2920.25
2920.31
2920.37
2920.43
2920.49
2920.55
2920.61
2920.67
2920.74
2920.8
2920.86
2920.92
2920.98
2921.04
2921.1
2921.17
2921.23
2921.29
2921.35
2921.41
2921.47
2921.53
2921.6
2921.66
2921.72
2921.78
2921.84
2921.9
2921.96
2922.03
2922.09
2922.15
2922.21
2922.27
2922.33
2922.39
2922.46
2922.52
2922.58
2922.64
2922.7
2922.76
2922.82
2922.89
2922.95
2923.01
2923.07
2923.13
2923.19
2923.26
2923.32
2923.38
2923.44
2923.5
2923.56
2923.62
2923.69
2923.75
2923.81
2923.87
2923.93
2923.99
2924.06
2924.12
2924.18
2924.24
2924.3
2924.36
2924.43
2924.49
2924.55
2924.61
2924.67
2924.74
2924.8
2924.86
2924.92
2924.98
2925.04
2925.11
2925.17
2925.23
2925.29
2925.35
2925.41
2925.48
2925.54
2925.6
2925.66
2925.72
2925.79
2925.85
2925.91
2925.97
2926.03
2926.1
2926.16
2926.22
2926.28
2926.34
2926.4
2926.47
2926.53
2926.59
2926.65
2926.71
2926.78
2926.84
2926.9
2926.96
2927.02
2927.09
2927.15
2927.21
2927.27
2927.33
2927.4
2927.46
2927.52
2927.58
2927.64
2927.71
2927.77
2927.83
2927.89
2927.96
2928.02
2928.08
2928.14
2928.2
2928.27
2928.33
2928.39
2928.45
2928.51
2928.58
2928.64
2928.7
2928.76
2928.83
2928.89
2928.95
2929.01
2929.07
2929.14
2929.2
2929.26
2929.32
2929.39
2929.45
2929.51
2929.57
2929.63
2929.7
2929.76
2929.82
2929.88
2929.95
2930.01
2930.07
2930.13
2930.2
2930.26
2930.32
2930.38
2930.45
2930.51
2930.57
2930.63
2930.69
2930.76
2930.82
2930.88
2930.94
2931.01
2931.07
2931.13
2931.19
2931.26
2931.32
2931.38
2931.44
2931.51
2931.57
2931.63
2931.69
2931.76
2931.82
2931.88
2931.94
2932.01
2932.07
2932.13
2932.19
2932.26
2932.32
2932.38
2932.45
2932.51
2932.57
2932.63
2932.7
2932.76
2932.82
2932.88
2932.95
2933.01
2933.07
2933.13
2933.2
2933.26
2933.32
2933.39
2933.45
2933.51
2933.57
2933.64
2933.7
2933.76
2933.82
2933.89
2933.95
2934.01
2934.08
2934.14
2934.2
2934.26
2934.33
2934.39
2934.45
2934.52
2934.58
2934.64
2934.7
2934.77
2934.83
2934.89
2934.96
2935.02
2935.08
2935.14
2935.21
2935.27
2935.33
2935.4
2935.46
2935.52
2935.59
2935.65
2935.71
2935.77
2935.84
2935.9
2935.96
2936.03
2936.09
2936.15
2936.22
2936.28
2936.34
2936.4
2936.47
2936.53
2936.59
2936.66
2936.72
2936.78
2936.85
2936.91
2936.97
2937.04
2937.1
2937.16
2937.23
2937.29
2937.35
2937.42
2937.48
2937.54
2937.6
2937.67
2937.73
2937.79
2937.86
2937.92
2937.98
2938.05
2938.11
2938.17
2938.24
2938.3
2938.36
2938.43
2938.49
2938.55
2938.62
2938.68
2938.74
2938.81
2938.87
2938.93
2939
2939.06
2939.12
2939.19
2939.25
2939.31
2939.38
2939.44
2939.51
2939.57
2939.63
2939.7
2939.76
2939.82
2939.89
2939.95
2940.01
2940.08
2940.14
2940.2
2940.27
2940.33
2940.39
2940.46
2940.52
2940.58
2940.65
2940.71
2940.78
2940.84
2940.9
2940.97
2941.03
2941.09
2941.16
2941.22
2941.28
2941.35
2941.41
2941.48
2941.54
2941.6
2941.67
2941.73
2941.79
2941.86
2941.92
2941.99
2942.05
2942.11
2942.18
2942.24
2942.3
2942.37
2942.43
2942.5
2942.56
2942.62
2942.69
2942.75
2942.82
2942.88
2942.94
2943.01
2943.07
2943.13
2943.2
2943.26
2943.33
2943.39
2943.45
2943.52
2943.58
2943.65
2943.71
2943.77
2943.84
2943.9
2943.97
2944.03
2944.09
2944.16
2944.22
2944.29
2944.35
2944.41
2944.48
2944.54
2944.61
2944.67
2944.73
2944.8
2944.86
2944.93
2944.99
2945.05
2945.12
2945.18
2945.25
2945.31
2945.38
2945.44
2945.5
2945.57
2945.63
2945.7
2945.76
2945.83
2945.89
2945.95
2946.02
2946.08
2946.15
2946.21
2946.27
2946.34
2946.4
2946.47
2946.53
2946.6
2946.66
2946.72
2946.79
2946.85
2946.92
2946.98
2947.05
2947.11
2947.18
2947.24
2947.3
2947.37
2947.43
2947.5
2947.56
2947.63
2947.69
2947.76
2947.82
2947.88
2947.95
2948.01
2948.08
2948.14
2948.21
2948.27
2948.34
2948.4
2948.47
2948.53
2948.59
2948.66
2948.72
2948.79
2948.85
2948.92
2948.98
2949.05
2949.11
2949.18
2949.24
2949.3
2949.37
2949.43
2949.5
2949.56
2949.63
2949.69
2949.76
2949.82
2949.89
2949.95
2950.02
2950.08
2950.15
2950.21
2950.28
2950.34
2950.41
2950.47
2950.54
2950.6
2950.66
2950.73
2950.79
2950.86
2950.92
2950.99
2951.05
2951.12
2951.18
2951.25
2951.31
2951.38
2951.44
2951.51
2951.57
2951.64
2951.7
2951.77
2951.83
2951.9
2951.96
2952.03
2952.09
2952.16
2952.22
2952.29
2952.35
2952.42
2952.48
2952.55
2952.61
2952.68
2952.74
2952.81
2952.87
2952.94
2953
2953.07
2953.13
2953.2
2953.26
2953.33
2953.4
2953.46
2953.53
2953.59
2953.66
2953.72
2953.79
2953.85
2953.92
2953.98
2954.05
2954.11
2954.18
2954.24
2954.31
2954.37
2954.44
2954.5
2954.57
2954.64
2954.7
2954.77
2954.83
2954.9
2954.96
2955.03
2955.09
2955.16
2955.22
2955.29
2955.35
2955.42
2955.49
2955.55
2955.62
2955.68
2955.75
2955.81
2955.88
2955.94
2956.01
2956.07
2956.14
2956.21
2956.27
2956.34
2956.4
2956.47
2956.53
2956.6
2956.67
2956.73
2956.8
2956.86
2956.93
2956.99
2957.06
2957.12
2957.19
2957.26
2957.32
2957.39
2957.45
2957.52
2957.58
2957.65
2957.72
2957.78
2957.85
2957.91
2957.98
2958.04
2958.11
2958.18
2958.24
2958.31
2958.37
2958.44
2958.51
2958.57
2958.64
2958.7
2958.77
2958.84
2958.9
2958.97
2959.03
2959.1
2959.16
2959.23
2959.3
2959.36
2959.43
2959.49
2959.56
2959.63
2959.69
2959.76
2959.82
2959.89
2959.96
2960.02
2960.09
2960.15
2960.22
2960.29
2960.35
2960.42
2960.49
2960.55
2960.62
2960.68
2960.75
2960.82
2960.88
2960.95
2961.01
2961.08
2961.15
2961.21
2961.28
2961.35
2961.41
2961.48
2961.54
2961.61
2961.68
2961.74
2961.81
2961.88
2961.94
2962.01
2962.07
2962.14
2962.21
2962.27
2962.34
2962.41
2962.47
2962.54
2962.61
2962.67
2962.74
2962.8
2962.87
2962.94
2963
2963.07
2963.14
2963.2
2963.27
2963.34
2963.4
2963.47
2963.54
2963.6
2963.67
2963.74
2963.8
2963.87
2963.94
2964
2964.07
2964.14
2964.2
2964.27
2964.34
2964.4
2964.47
2964.54
2964.6
2964.67
2964.74
2964.8
2964.87
2964.94
2965
2965.07
2965.14
2965.2
2965.27
2965.34
2965.4
2965.47
2965.54
2965.6
2965.67
2965.74
2965.8
2965.87
2965.94
2966
2966.07
2966.14
2966.2
2966.27
2966.34
2966.41
2966.47
2966.54
2966.61
2966.67
2966.74
2966.81
2966.87
2966.94
2967.01
2967.08
2967.14
2967.21
2967.28
2967.34
2967.41
2967.48
2967.54
2967.61
2967.68
2967.75
2967.81
2967.88
2967.95
2968.01
2968.08
2968.15
2968.22
2968.28
2968.35
2968.42
2968.48
2968.55
2968.62
2968.69
2968.75
2968.82
2968.89
2968.96
2969.02
2969.09
2969.16
2969.22
2969.29
2969.36
2969.43
2969.49
2969.56
2969.63
2969.7
2969.76
2969.83
2969.9
2969.97
2970.03
2970.1
2970.17
2970.24
2970.3
2970.37
2970.44
2970.51
2970.57
2970.64
2970.71
2970.78
2970.84
2970.91
2970.98
2971.05
2971.11
2971.18
2971.25
2971.32
2971.38
2971.45
2971.52
2971.59
2971.65
2971.72
2971.79
2971.86
2971.92
2971.99
2972.06
2972.13
2972.2
2972.26
2972.33
2972.4
2972.47
2972.53
2972.6
2972.67
2972.74
2972.81
2972.87
2972.94
2973.01
2973.08
2973.14
2973.21
2973.28
2973.35
2973.42
2973.48
2973.55
2973.62
2973.69
2973.76
2973.82
2973.89
2973.96
2974.03
2974.1
2974.16
2974.23
2974.3
2974.37
2974.44
2974.5
2974.57
2974.64
2974.71
2974.78
2974.84
2974.91
2974.98
2975.05
2975.12
2975.19
2975.25
2975.32
2975.39
2975.46
2975.53
2975.59
2975.66
2975.73
2975.8
2975.87
2975.94
2976
2976.07
2976.14
2976.21
2976.28
2976.35
2976.41
2976.48
2976.55
2976.62
2976.69
2976.76
2976.82
2976.89
2976.96
2977.03
2977.1
2977.17
2977.23
2977.3
2977.37
2977.44
2977.51
2977.58
2977.65
2977.71
2977.78
2977.85
2977.92
2977.99
2978.06
2978.13
2978.19
2978.26
2978.33
2978.4
2978.47
2978.54
2978.61
2978.67
2978.74
2978.81
2978.88
2978.95
2979.02
2979.09
2979.16
2979.22
2979.29
2979.36
2979.43
2979.5
2979.57
2979.64
2979.71
2979.77
2979.84
2979.91
2979.98
2980.05
2980.12
2980.19
2980.26
2980.33
2980.39
2980.46
2980.53
2980.6
2980.67
2980.74
2980.81
2980.88
2980.95
2981.02
2981.08
2981.15
2981.22
2981.29
2981.36
2981.43
2981.5
2981.57
2981.64
2981.71
2981.78
2981.84
2981.91
2981.98
2982.05
2982.12
2982.19
2982.26
2982.33
2982.4
2982.47
2982.54
2982.61
2982.67
2982.74
2982.81
2982.88
2982.95
2983.02
2983.09
2983.16
2983.23
2983.3
2983.37
2983.44
2983.51
2983.58
2983.65
2983.72
2983.78
2983.85
2983.92
2983.99
2984.06
2984.13
2984.2
2984.27
2984.34
2984.41
2984.48
2984.55
2984.62
2984.69
2984.76
2984.83
2984.9
2984.97
2985.04
2985.11
2985.18
2985.24
2985.31
2985.38
2985.45
2985.52
2985.59
2985.66
2985.73
2985.8
2985.87
2985.94
2986.01
2986.08
2986.15
2986.22
2986.29
2986.36
2986.43
2986.5
2986.57
2986.64
2986.71
2986.78
2986.85
2986.92
2986.99
2987.06
2987.13
2987.2
2987.27
2987.34
2987.41
2987.48
2987.55
2987.62
2987.69
2987.76
2987.83
2987.9
2987.97
2988.04
2988.11
2988.18
2988.25
2988.32
2988.39
2988.46
2988.53
2988.6
2988.67
2988.74
2988.81
2988.88
2988.95
2989.02
2989.09
2989.16
2989.23
2989.3
2989.37
2989.44
2989.51
2989.58
2989.65
2989.72
2989.79
2989.87
2989.94
2990.01
2990.08
2990.15
2990.22
2990.29
2990.36
2990.43
2990.5
2990.57
2990.64
2990.71
2990.78
2990.85
2990.92
2990.99
2991.06
2991.13
2991.2
2991.27
2991.34
2991.42
2991.49
2991.56
2991.63
2991.7
2991.77
2991.84
2991.91
2991.98
2992.05
2992.12
2992.19
2992.26
2992.33
2992.41
2992.48
2992.55
2992.62
2992.69
2992.76
2992.83
2992.9
2992.97
2993.04
2993.11
2993.18
2993.25
2993.33
2993.4
2993.47
2993.54
2993.61
2993.68
2993.75
2993.82
2993.89
2993.96
2994.04
2994.11
2994.18
2994.25
2994.32
2994.39
2994.46
2994.53
2994.6
2994.67
2994.75
2994.82
2994.89
2994.96
2995.03
2995.1
2995.17
2995.24
2995.32
2995.39
2995.46
2995.53
2995.6
2995.67
2995.74
2995.81
2995.89
2995.96
2996.03
2996.1
2996.17
2996.24
2996.31
2996.38
2996.46
2996.53
2996.6
2996.67
2996.74
2996.81
2996.88
2996.96
2997.03
2997.1
2997.17
2997.24
2997.31
2997.39
2997.46
2997.53
2997.6
2997.67
2997.74
2997.81
2997.89
2997.96
2998.03
2998.1
2998.17
2998.24
2998.32
2998.39
2998.46
2998.53
2998.6
2998.68
2998.75
2998.82
2998.89
2998.96
2999.03
2999.11
2999.18
2999.25
2999.32
2999.39
2999.47
2999.54
2999.61
2999.68
2999.75
2999.82
2999.9
2999.97
3000.04
3000.11
3000.18
3000.26
3000.33
3000.4
3000.47
3000.54
3000.62
3000.69
3000.76
3000.83
3000.91
3000.98
3001.05
3001.12
3001.19
3001.27
3001.34
3001.41
3001.48
3001.55
3001.63
3001.7
3001.77
3001.84
3001.92
3001.99
3002.06
3002.13
3002.2
3002.28
3002.35
3002.42
3002.49
3002.57
3002.64
3002.71
3002.78
3002.86
3002.93
3003
3003.07
3003.15
3003.22
3003.29
3003.36
3003.44
3003.51
3003.58
3003.65
3003.73
3003.8
3003.87
3003.94
3004.02
3004.09
3004.16
3004.23
3004.31
3004.38
3004.45
3004.53
3004.6
3004.67
3004.74
3004.82
3004.89
3004.96
3005.03
3005.11
3005.18
3005.25
3005.33
3005.4
3005.47
3005.54
3005.62
3005.69
3005.76
3005.84
3005.91
3005.98
3006.06
3006.13
3006.2
3006.27
3006.35
3006.42
3006.49
3006.57
3006.64
3006.71
3006.79
3006.86
3006.93
3007
3007.08
3007.15
3007.22
3007.3
3007.37
3007.44
3007.52
3007.59
3007.66
3007.74
3007.81
3007.88
3007.96
3008.03
3008.1
3008.18
3008.25
3008.32
3008.4
3008.47
3008.54
3008.62
3008.69
3008.76
3008.84
3008.91
3008.98
3009.06
3009.13
3009.2
3009.28
3009.35
3009.42
3009.5
3009.57
3009.65
3009.72
3009.79
3009.87
3009.94
3010.01
3010.09
3010.16
3010.23
3010.31
3010.38
3010.46
3010.53
3010.6
3010.68
3010.75
3010.82
3010.9
3010.97
3011.05
3011.12
3011.19
3011.27
3011.34
3011.41
3011.49
3011.56
3011.64
3011.71
3011.78
3011.86
3011.93
3012.01
3012.08
3012.15
3012.23
3012.3
3012.38
3012.45
3012.52
3012.6
3012.67
3012.75
3012.82
3012.89
3012.97
3013.04
3013.12
3013.19
3013.27
3013.34
3013.41
3013.49
3013.56
3013.64
3013.71
3013.79
3013.86
3013.93
3014.01
3014.08
3014.16
3014.23
3014.31
3014.38
3014.45
3014.53
3014.6
3014.68
3014.75
3014.83
3014.9
3014.98
3015.05
3015.12
3015.2
3015.27
3015.35
3015.42
3015.5
3015.57
3015.65
3015.72
3015.8
3015.87
3015.94
3016.02
3016.09
3016.17
3016.24
3016.32
3016.39
3016.47
3016.54
3016.62
3016.69
3016.77
3016.84
3016.92
3016.99
3017.07
3017.14
3017.22
3017.29
3017.37
3017.44
3017.52
3017.59
3017.67
3017.74
3017.82
3017.89
3017.97
3018.04
3018.12
3018.19
3018.27
3018.34
3018.42
3018.49
3018.57
3018.64
3018.72
3018.79
3018.87
3018.94
3019.02
3019.09
3019.17
3019.24
3019.32
3019.39
3019.47
3019.54
3019.62
3019.69
3019.77
3019.84
3019.92
3020
3020.07
3020.15
3020.22
3020.3
3020.37
3020.45
3020.52
3020.6
3020.67
3020.75
3020.83
3020.9
3020.98
3021.05
3021.13
3021.2
3021.28
3021.35
3021.43
3021.51
3021.58
3021.66
3021.73
3021.81
3021.88
3021.96
3022.04
3022.11
3022.19
3022.26
3022.34
3022.41
3022.49
3022.57
3022.64
3022.72
3022.79
3022.87
3022.95
3023.02
3023.1
3023.17
3023.25
3023.32
3023.4
3023.48
3023.55
3023.63
3023.7
3023.78
3023.86
3023.93
3024.01
3024.09
3024.16
3024.24
3024.31
3024.39
3024.47
3024.54
3024.62
3024.69
3024.77
3024.85
3024.92
3025
3025.08
3025.15
3025.23
3025.3
3025.38
3025.46
3025.53
3025.61
3025.69
3025.76
3025.84
3025.92
3025.99
3026.07
3026.15
3026.22
3026.3
3026.37
3026.45
3026.53
3026.6
3026.68
3026.76
3026.83
3026.91
3026.99
3027.06
3027.14
3027.22
3027.29
3027.37
3027.45
3027.52
3027.6
3027.68
3027.75
3027.83
3027.91
3027.98
3028.06
3028.14
3028.22
3028.29
3028.37
3028.45
3028.52
3028.6
3028.68
3028.75
3028.83
3028.91
3028.98
3029.06
3029.14
3029.22
3029.29
3029.37
3029.45
3029.52
3029.6
3029.68
3029.76
3029.83
3029.91
3029.99
3030.06
3030.14
3030.22
3030.3
3030.37
3030.45
3030.53
3030.6
3030.68
3030.76
3030.84
3030.91
3030.99
3031.07
3031.15
3031.22
3031.3
3031.38
3031.46
3031.53
3031.61
3031.69
3031.77
3031.84
3031.92
3032
3032.08
3032.15
3032.23
3032.31
3032.39
3032.46
3032.54
3032.62
3032.7
3032.78
3032.85
3032.93
3033.01
3033.09
3033.16
3033.24
3033.32
3033.4
3033.48
3033.55
3033.63
3033.71
3033.79
3033.86
3033.94
3034.02
3034.1
3034.18
3034.25
3034.33
3034.41
3034.49
3034.57
3034.64
3034.72
3034.8
3034.88
3034.96
3035.03
3035.11
3035.19
3035.27
3035.35
3035.43
3035.5
3035.58
3035.66
3035.74
3035.82
3035.9
3035.97
3036.05
3036.13
3036.21
3036.29
3036.37
3036.44
3036.52
3036.6
3036.68
3036.76
3036.84
3036.91
3036.99
3037.07
3037.15
3037.23
3037.31
3037.39
3037.46
3037.54
3037.62
3037.7
3037.78
3037.86
3037.94
3038.02
3038.09
3038.17
3038.25
3038.33
3038.41
3038.49
3038.57
3038.65
3038.72
3038.8
3038.88
3038.96
3039.04
3039.12
3039.2
3039.28
3039.36
3039.43
3039.51
3039.59
3039.67
3039.75
3039.83
3039.91
3039.99
3040.07
3040.15
3040.23
3040.3
3040.38
3040.46
3040.54
3040.62
3040.7
3040.78
3040.86
3040.94
3041.02
3041.1
3041.18
3041.26
3041.33
3041.41
3041.49
3041.57
3041.65
3041.73
3041.81
3041.89
3041.97
3042.05
3042.13
3042.21
3042.29
3042.37
3042.45
3042.53
3042.61
3042.69
3042.77
3042.85
3042.92
3043
3043.08
3043.16
3043.24
3043.32
3043.4
3043.48
3043.56
3043.64
3043.72
3043.8
3043.88
3043.96
3044.04
3044.12
3044.2
3044.28
3044.36
3044.44
3044.52
3044.6
3044.68
3044.76
3044.84
3044.92
3045
3045.08
3045.16
3045.24
3045.32
3045.4
3045.48
3045.56
3045.64
3045.72
3045.8
3045.88
3045.96
3046.04
3046.12
3046.2
3046.28
3046.37
3046.45
3046.53
3046.61
3046.69
3046.77
3046.85
3046.93
3047.01
3047.09
3047.17
3047.25
3047.33
3047.41
3047.49
3047.57
3047.65
3047.73
3047.81
3047.89
3047.98
3048.06
3048.14
3048.22
3048.3
3048.38
3048.46
3048.54
3048.62
3048.7
3048.78
3048.86
3048.94
3049.03
3049.11
3049.19
3049.27
3049.35
3049.43
3049.51
3049.59
3049.67
3049.75
3049.84
3049.92
3050
3050.08
3050.16
3050.24
3050.32
3050.4
3050.48
3050.57
3050.65
3050.73
3050.81
3050.89
3050.97
3051.05
3051.13
3051.22
3051.3
3051.38
3051.46
3051.54
3051.62
3051.7
3051.79
3051.87
3051.95
3052.03
3052.11
3052.19
3052.27
3052.36
3052.44
3052.52
3052.6
3052.68
3052.76
3052.85
3052.93
3053.01
3053.09
3053.17
3053.25
3053.34
3053.42
3053.5
3053.58
3053.66
3053.74
3053.83
3053.91
3053.99
3054.07
3054.15
3054.24
3054.32
3054.4
3054.48
3054.56
3054.65
3054.73
3054.81
3054.89
3054.97
3055.06
3055.14
3055.22
3055.3
3055.38
3055.47
3055.55
3055.63
3055.71
3055.8
3055.88
3055.96
3056.04
3056.13
3056.21
3056.29
3056.37
3056.45
3056.54
3056.62
3056.7
3056.78
3056.87
3056.95
3057.03
3057.11
3057.2
3057.28
3057.36
3057.44
3057.53
3057.61
3057.69
3057.78
3057.86
3057.94
3058.02
3058.11
3058.19
3058.27
3058.35
3058.44
3058.52
3058.6
3058.69
3058.77
3058.85
3058.93
3059.02
3059.1
3059.18
3059.27
3059.35
3059.43
3059.52
3059.6
3059.68
3059.77
3059.85
3059.93
3060.01
3060.1
3060.18
3060.26
3060.35
3060.43
3060.51
3060.6
3060.68
3060.76
3060.85
3060.93
3061.01
3061.1
3061.18
3061.26
3061.35
3061.43
3061.51
3061.6
3061.68
3061.76
3061.85
3061.93
3062.02
3062.1
3062.18
3062.27
3062.35
3062.43
3062.52
3062.6
3062.68
3062.77
3062.85
3062.94
3063.02
3063.1
3063.19
3063.27
3063.35
3063.44
3063.52
3063.61
3063.69
3063.77
3063.86
3063.94
3064.03
3064.11
3064.19
3064.28
3064.36
3064.45
3064.53
3064.61
3064.7
3064.78
3064.87
3064.95
3065.04
3065.12
3065.2
3065.29
3065.37
3065.46
3065.54
3065.63
3065.71
3065.79
3065.88
3065.96
3066.05
3066.13
3066.22
3066.3
3066.39
3066.47
3066.55
3066.64
3066.72
3066.81
3066.89
3066.98
3067.06
3067.15
3067.23
3067.32
3067.4
3067.49
3067.57
3067.66
3067.74
3067.83
3067.91
3067.99
3068.08
3068.16
3068.25
3068.33
3068.42
3068.5
3068.59
3068.67
3068.76
3068.84
3068.93
3069.01
3069.1
3069.18
3069.27
3069.36
3069.44
3069.53
3069.61
3069.7
3069.78
3069.87
3069.95
3070.04
3070.12
3070.21
3070.29
3070.38
3070.46
3070.55
3070.63
3070.72
3070.81
3070.89
3070.98
3071.06
3071.15
3071.23
3071.32
3071.4
3071.49
3071.58
3071.66
3071.75
3071.83
3071.92
3072
3072.09
3072.18
3072.26
3072.35
3072.43
3072.52
3072.6
3072.69
3072.78
3072.86
3072.95
3073.03
3073.12
3073.21
3073.29
3073.38
3073.46
3073.55
3073.64
3073.72
3073.81
3073.9
3073.98
3074.07
3074.15
3074.24
3074.33
3074.41
3074.5
3074.59
3074.67
3074.76
3074.84
3074.93
3075.02
3075.1
3075.19
3075.28
3075.36
3075.45
3075.54
3075.62
3075.71
3075.8
3075.88
3075.97
3076.06
3076.14
3076.23
3076.32
3076.4
3076.49
3076.58
3076.66
3076.75
3076.84
3076.92
3077.01
3077.1
3077.18
3077.27
3077.36
3077.44
3077.53
3077.62
3077.71
3077.79
3077.88
3077.97
3078.05
3078.14
3078.23
3078.32
3078.4
3078.49
3078.58
3078.66
3078.75
3078.84
3078.93
3079.01
3079.1
3079.19
3079.28
3079.36
3079.45
3079.54
3079.62
3079.71
3079.8
3079.89
3079.97
3080.06
3080.15
3080.24
3080.33
3080.41
3080.5
3080.59
3080.68
3080.76
3080.85
3080.94
3081.03
3081.11
3081.2
3081.29
3081.38
3081.47
3081.55
3081.64
3081.73
3081.82
3081.91
3081.99
3082.08
3082.17
3082.26
3082.35
3082.43
3082.52
3082.61
3082.7
3082.79
3082.87
3082.96
3083.05
3083.14
3083.23
3083.32
3083.4
3083.49
3083.58
3083.67
3083.76
3083.85
3083.93
3084.02
3084.11
3084.2
3084.29
3084.38
3084.47
3084.55
3084.64
3084.73
3084.82
3084.91
3085
3085.09
3085.18
3085.26
3085.35
3085.44
3085.53
3085.62
3085.71
3085.8
3085.89
3085.97
3086.06
3086.15
3086.24
3086.33
3086.42
3086.51
3086.6
3086.69
3086.78
3086.87
3086.95
3087.04
3087.13
3087.22
3087.31
3087.4
3087.49
3087.58
3087.67
3087.76
3087.85
3087.94
3088.03
3088.12
3088.2
3088.29
3088.38
3088.47
3088.56
3088.65
3088.74
3088.83
3088.92
3089.01
3089.1
3089.19
3089.28
3089.37
3089.46
3089.55
3089.64
3089.73
3089.82
3089.91
3090
3090.09
3090.18
3090.27
3090.36
3090.45
3090.54
3090.63
3090.72
3090.81
3090.9
3090.99
3091.08
3091.17
3091.26
3091.35
3091.44
3091.53
3091.62
3091.71
3091.8
3091.89
3091.98
3092.07
3092.16
3092.25
3092.34
3092.43
3092.52
3092.61
3092.7
3092.79
3092.88
3092.98
3093.07
3093.16
3093.25
3093.34
3093.43
3093.52
3093.61
3093.7
3093.79
3093.88
3093.97
3094.06
3094.15
3094.25
3094.34
3094.43
3094.52
3094.61
3094.7
3094.79
3094.88
3094.97
3095.06
3095.16
3095.25
3095.34
3095.43
3095.52
3095.61
3095.7
3095.79
3095.89
3095.98
3096.07
3096.16
3096.25
3096.34
3096.43
3096.52
3096.62
3096.71
3096.8
3096.89
3096.98
3097.07
3097.17
3097.26
3097.35
3097.44
3097.53
3097.62
3097.72
3097.81
3097.9
3097.99
3098.08
3098.17
3098.27
3098.36
3098.45
3098.54
3098.63
3098.73
3098.82
3098.91
3099
3099.09
3099.19
3099.28
3099.37
3099.46
3099.55
3099.65
3099.74
3099.83
3099.92
3100.02
3100.11
3100.2
3100.29
3100.39
3100.48
3100.57
3100.66
3100.75
3100.85
3100.94
3101.03
3101.12
3101.22
3101.31
3101.4
3101.5
3101.59
3101.68
3101.77
3101.87
3101.96
3102.05
3102.14
3102.24
3102.33
3102.42
3102.52
3102.61
3102.7
3102.79
3102.89
3102.98
3103.07
3103.17
3103.26
3103.35
3103.45
3103.54
3103.63
3103.73
3103.82
3103.91
3104.01
3104.1
3104.19
3104.29
3104.38
3104.47
3104.57
3104.66
3104.75
3104.85
3104.94
3105.03
3105.13
3105.22
3105.31
3105.41
3105.5
3105.59
3105.69
3105.78
3105.88
3105.97
3106.06
3106.16
3106.25
3106.35
3106.44
3106.53
3106.63
3106.72
3106.81
3106.91
3107
3107.1
3107.19
3107.28
3107.38
3107.47
3107.57
3107.66
3107.76
3107.85
3107.94
3108.04
3108.13
3108.23
3108.32
3108.42
3108.51
3108.6
3108.7
3108.79
3108.89
3108.98
3109.08
3109.17
3109.27
3109.36
3109.46
3109.55
3109.65
3109.74
3109.83
3109.93
3110.02
3110.12
3110.21
3110.31
3110.4
3110.5
3110.59
3110.69
3110.78
3110.88
3110.97
3111.07
3111.16
3111.26
3111.35
3111.45
3111.54
3111.64
3111.73
3111.83
3111.92
3112.02
3112.12
3112.21
3112.31
3112.4
3112.5
3112.59
3112.69
3112.78
3112.88
3112.97
3113.07
3113.17
3113.26
3113.36
3113.45
3113.55
3113.64
3113.74
3113.84
3113.93
3114.03
3114.12
3114.22
3114.31
3114.41
3114.51
3114.6
3114.7
3114.79
3114.89
3114.99
3115.08
3115.18
3115.28
3115.37
3115.47
3115.56
3115.66
3115.76
3115.85
3115.95
3116.05
3116.14
3116.24
3116.33
3116.43
3116.53
3116.62
3116.72
3116.82
3116.91
3117.01
3117.11
3117.2
3117.3
3117.4
3117.49
3117.59
3117.69
3117.78
3117.88
3117.98
3118.07
3118.17
3118.27
3118.36
3118.46
3118.56
3118.66
3118.75
3118.85
3118.95
3119.04
3119.14
3119.24
3119.34
3119.43
3119.53
3119.63
3119.72
3119.82
3119.92
3120.02
3120.11
3120.21
3120.31
3120.41
3120.5
3120.6
3120.7
3120.8
3120.89
3120.99
3121.09
3121.19
3121.28
3121.38
3121.48
3121.58
3121.68
3121.77
3121.87
3121.97
3122.07
3122.17
3122.26
3122.36
3122.46
3122.56
3122.66
3122.75
3122.85
3122.95
3123.05
3123.15
3123.24
3123.34
3123.44
3123.54
3123.64
3123.74
3123.83
3123.93
3124.03
3124.13
3124.23
3124.33
3124.43
3124.52
3124.62
3124.72
3124.82
3124.92
3125.02
3125.12
3125.21
3125.31
3125.41
3125.51
3125.61
3125.71
3125.81
3125.91
3126.01
3126.1
3126.2
3126.3
3126.4
3126.5
3126.6
3126.7
3126.8
3126.9
3127
3127.1
3127.2
3127.29
3127.39
3127.49
3127.59
3127.69
3127.79
3127.89
3127.99
3128.09
3128.19
3128.29
3128.39
3128.49
3128.59
3128.69
3128.79
3128.89
3128.99
3129.09
3129.19
3129.29
3129.39
3129.49
3129.59
3129.69
3129.79
3129.89
3129.99
3130.09
3130.19
3130.29
3130.39
3130.49
3130.59
3130.69
3130.79
3130.89
3130.99
3131.09
3131.19
3131.29
3131.39
3131.49
3131.59
3131.69
3131.79
3131.89
3131.99
3132.09
3132.19
3132.3
3132.4
3132.5
3132.6
3132.7
3132.8
3132.9
3133
3133.1
3133.2
3133.3
3133.4
3133.51
3133.61
3133.71
3133.81
3133.91
3134.01
3134.11
3134.21
3134.31
3134.42
3134.52
3134.62
3134.72
3134.82
3134.92
3135.02
3135.13
3135.23
3135.33
3135.43
3135.53
3135.63
3135.73
3135.84
3135.94
3136.04
3136.14
3136.24
3136.34
3136.45
3136.55
3136.65
3136.75
3136.85
3136.96
3137.06
3137.16
3137.26
3137.36
3137.47
3137.57
3137.67
3137.77
3137.88
3137.98
3138.08
3138.18
3138.28
3138.39
3138.49
3138.59
3138.69
3138.8
3138.9
3139
3139.1
3139.21
3139.31
3139.41
3139.51
3139.62
3139.72
3139.82
3139.93
3140.03
3140.13
3140.23
3140.34
3140.44
3140.54
3140.65
3140.75
3140.85
3140.96
3141.06
3141.16
3141.26
3141.37
3141.47
3141.57
3141.68
3141.78
3141.88
3141.99
3142.09
3142.19
3142.3
3142.4
3142.5
3142.61
3142.71
3142.82
3142.92
3143.02
3143.13
3143.23
3143.33
3143.44
3143.54
3143.65
3143.75
3143.85
3143.96
3144.06
3144.17
3144.27
3144.37
3144.48
3144.58
3144.69
3144.79
3144.89
3145
3145.1
3145.21
3145.31
3145.42
3145.52
3145.62
3145.73
3145.83
3145.94
3146.04
3146.15
3146.25
3146.36
3146.46
3146.57
3146.67
3146.77
3146.88
3146.98
3147.09
3147.19
3147.3
3147.4
3147.51
3147.61
3147.72
3147.82
3147.93
3148.03
3148.14
3148.24
3148.35
3148.45
3148.56
3148.66
3148.77
3148.88
3148.98
3149.09
3149.19
3149.3
3149.4
3149.51
3149.61
3149.72
3149.83
3149.93
3150.04
3150.14
3150.25
3150.35
3150.46
3150.57
3150.67
3150.78
3150.88
3150.99
3151.09
3151.2
3151.31
3151.41
3151.52
3151.63
3151.73
3151.84
3151.94
3152.05
3152.16
3152.26
3152.37
3152.48
3152.58
3152.69
3152.79
3152.9
3153.01
3153.11
3153.22
3153.33
3153.43
3153.54
3153.65
3153.75
3153.86
3153.97
3154.07
3154.18
3154.29
3154.4
3154.5
3154.61
3154.72
3154.82
3154.93
3155.04
3155.14
3155.25
3155.36
3155.47
3155.57
3155.68
3155.79
3155.9
3156
3156.11
3156.22
3156.33
3156.43
3156.54
3156.65
3156.76
3156.86
3156.97
3157.08
3157.19
3157.29
3157.4
3157.51
3157.62
3157.73
3157.83
3157.94
3158.05
3158.16
3158.27
3158.37
3158.48
3158.59
3158.7
3158.81
3158.92
3159.02
3159.13
3159.24
3159.35
3159.46
3159.57
3159.67
3159.78
3159.89
3160
3160.11
3160.22
3160.33
3160.43
3160.54
3160.65
3160.76
3160.87
3160.98
3161.09
3161.2
3161.31
3161.41
3161.52
3161.63
3161.74
3161.85
3161.96
3162.07
3162.18
3162.29
3162.4
3162.51
3162.62
3162.73
3162.84
3162.94
3163.05
3163.16
3163.27
3163.38
3163.49
3163.6
3163.71
3163.82
3163.93
3164.04
3164.15
3164.26
3164.37
3164.48
3164.59
3164.7
3164.81
3164.92
3165.03
3165.14
3165.25
3165.36
3165.47
3165.58
3165.69
3165.8
3165.91
3166.02
3166.13
3166.24
3166.35
3166.47
3166.58
3166.69
3166.8
3166.91
3167.02
3167.13
3167.24
3167.35
3167.46
3167.57
3167.68
3167.79
3167.91
3168.02
3168.13
3168.24
3168.35
3168.46
3168.57
3168.68
3168.79
3168.91
3169.02
3169.13
3169.24
3169.35
3169.46
3169.57
3169.69
3169.8
3169.91
3170.02
3170.13
3170.24
3170.36
3170.47
3170.58
3170.69
3170.8
3170.91
3171.03
3171.14
3171.25
3171.36
3171.47
3171.59
3171.7
3171.81
3171.92
3172.04
3172.15
3172.26
3172.37
3172.48
3172.6
3172.71
3172.82
3172.93
3173.05
3173.16
3173.27
3173.39
3173.5
3173.61
3173.72
3173.84
3173.95
3174.06
3174.17
3174.29
3174.4
3174.51
3174.63
3174.74
3174.85
3174.97
3175.08
3175.19
3175.31
3175.42
3175.53
3175.65
3175.76
3175.87
3175.99
3176.1
3176.21
3176.33
3176.44
3176.55
3176.67
3176.78
3176.89
3177.01
3177.12
3177.24
3177.35
3177.46
3177.58
3177.69
3177.81
3177.92
3178.03
3178.15
3178.26
3178.38
3178.49
3178.61
3178.72
3178.83
3178.95
3179.06
3179.18
3179.29
3179.41
3179.52
3179.64
3179.75
3179.86
3179.98
3180.09
3180.21
3180.32
3180.44
3180.55
3180.67
3180.78
3180.9
3181.01
3181.13
3181.24
3181.36
3181.47
3181.59
3181.7
3181.82
3181.93
3182.05
3182.17
3182.28
3182.4
3182.51
3182.63
3182.74
3182.86
3182.97
3183.09
3183.21
3183.32
3183.44
3183.55
3183.67
3183.79
3183.9
3184.02
3184.13
3184.25
3184.37
3184.48
3184.6
3184.71
3184.83
3184.95
3185.06
3185.18
3185.3
3185.41
3185.53
3185.64
3185.76
3185.88
3185.99
3186.11
3186.23
3186.34
3186.46
3186.58
3186.69
3186.81
3186.93
3187.05
3187.16
3187.28
3187.4
3187.51
3187.63
3187.75
3187.87
3187.98
3188.1
3188.22
3188.33
3188.45
3188.57
3188.69
3188.8
3188.92
3189.04
3189.16
3189.27
3189.39
3189.51
3189.63
3189.75
3189.86
3189.98
3190.1
3190.22
3190.34
3190.45
3190.57
3190.69
3190.81
3190.93
3191.04
3191.16
3191.28
3191.4
3191.52
3191.64
3191.75
3191.87
3191.99
3192.11
3192.23
3192.35
3192.47
3192.58
3192.7
3192.82
3192.94
3193.06
3193.18
3193.3
3193.42
3193.54
3193.65
3193.77
3193.89
3194.01
3194.13
3194.25
3194.37
3194.49
3194.61
3194.73
3194.85
3194.97
3195.09
3195.21
3195.33
3195.45
3195.57
3195.69
3195.8
3195.92
3196.04
3196.16
3196.28
3196.4
3196.52
3196.64
3196.76
3196.88
3197
3197.13
3197.25
3197.37
3197.49
3197.61
3197.73
3197.85
3197.97
3198.09
3198.21
3198.33
3198.45
3198.57
3198.69
3198.81
3198.93
3199.05
3199.17
3199.3
3199.42
3199.54
3199.66
3199.78
3199.9
3200.02
3200.14
3200.26
3200.39
3200.51
3200.63
3200.75
3200.87
3200.99
3201.11
3201.24
3201.36
3201.48
3201.6
3201.72
3201.84
3201.97
3202.09
3202.21
3202.33
3202.45
3202.58
3202.7
3202.82
3202.94
3203.06
3203.19