/*--------------------------------*- C++ -*----------------------------------*\
| =========                 |                                                 |
| \\      /  F ield         | OpenFOAM: The Open Source CFD Toolbox           |
|  \\    /   O peration     | Version:  2.3.0                                 |
|   \\  /    A nd           | Web:      www.OpenFOAM.org                      |
|    \\/     M anipulation  |                                                 |
\*---------------------------------------------------------------------------*/
FoamFile
{
    version     2.0;
    format      ascii;
    class       volScalarField;
    location    "1e-06";
    object      muSgs;
}
// * * * * * * * * * * * * * * * * * * * * * * * * * * * * * * * * * * * * * //

dimensions      [1 -1 -1 0 0 0 0];

internalField   nonuniform List<scalar> 
10000
(
7.50351e-15
7.50318e-15
7.19095e-15
4.45207e-25
1.28327e-13
7.19101e-15
7.19103e-15
7.19173e-15
7.19175e-15
1.28317e-13
1.28317e-13
7.19181e-15
1.4383e-14
7.19254e-15
2.04739e-18
2.56651e-13
5.13339e-13
2.56676e-13
2.56701e-13
2.56702e-13
7.18926e-15
7.18928e-15
2.8764e-14
3.59555e-14
1.36684e-18
2.05054e-18
7.1928e-15
1.28311e-13
2.5666e-13
1.28324e-13
3.85035e-13
3.85036e-13
2.44216e-17
1.43818e-14
7.19023e-15
7.19162e-15
7.19095e-15
2.56691e-13
2.22639e-25
2.15744e-14
7.19172e-15
1.43848e-14
2.87677e-14
7.19452e-15
1.28293e-13
3.42714e-18
2.87701e-14
2.1579e-14
7.19737e-15
5.4865e-18
6.17318e-18
5.48804e-18
7.19814e-15
1.43895e-14
6.86293e-18
7.19889e-15
1.4391e-14
2.15837e-14
2.87766e-14
2.8778e-14
2.87795e-14
7.20451e-15
1.28115e-13
1.3056e-17
7.20526e-15
1.43975e-14
7.206e-15
7.20671e-15
1.28105e-13
2.56456e-13
1.37567e-17
1.43985e-14
1.43985e-14
7.20753e-15
2.15924e-14
1.44007e-14
7.20966e-15
1.72128e-17
7.2104e-15
7.20973e-15
1.85977e-17
2.15956e-14
2.15963e-14
7.21258e-15
1.28e-13
3.84738e-13
3.84751e-13
1.28037e-13
2.5642e-13
6.41532e-13
5.13188e-13
2.56484e-13
2.56497e-13
2.5651e-13
2.56523e-13
1.28163e-13
2.56549e-13
1.10473e-17
1.43955e-14
1.10504e-17
1.10519e-17
1.28177e-13
3.84928e-13
1.03656e-17
2.15881e-14
1.03685e-17
1.43972e-14
2.15896e-14
1.24475e-17
1.24492e-17
1.28156e-13
1.24527e-17
1.28169e-13
1.28157e-13
1.10738e-17
1.17676e-17
1.43976e-14
7.20506e-15
7.20577e-15
7.20579e-15
1.31613e-17
7.20653e-15
2.15933e-14
1.38599e-17
2.56494e-13
7.20731e-15
1.28136e-13
3.84893e-13
3.84919e-13
2.56547e-13
7.20465e-15
1.11005e-17
1.28176e-13
1.43983e-14
7.20474e-15
2.56551e-13
1.28177e-13
7.20481e-15
1.11115e-17
1.28178e-13
1.11146e-17
2.5658e-13
2.56581e-13
3.84997e-13
6.41779e-13
3.85036e-13
2.56671e-13
1.28292e-13
1.43927e-14
7.19881e-15
6.26084e-18
7.19955e-15
7.20027e-15
7.20029e-15
1.4395e-14
1.43951e-14
7.20244e-15
8.35608e-18
2.5663e-13
8.35846e-18
7.66301e-18
2.56644e-13
7.66518e-18
6.96934e-18
3.85056e-13
2.56672e-13
2.56697e-13
2.56698e-13
7.19852e-15
1.43929e-14
7.19926e-15
5.58182e-18
7.2e-15
2.87833e-14
2.15896e-14
8.37749e-18
8.37869e-18
1.28253e-13
7.20292e-15
7.20224e-15
9.08208e-18
7.20298e-15
1.28242e-13
2.56647e-13
8.38824e-18
7.69031e-18
8.39063e-18
7.20241e-15
1.28257e-13
1.28257e-13
1.2827e-13
7.69689e-18
1.43966e-14
1.28271e-13
3.85076e-13
1.28284e-13
3.85116e-13
5.13527e-13
2.56745e-13
1.28348e-13
1.28361e-13
5.13595e-13
6.42021e-13
1.28412e-13
1.43887e-14
7.19439e-15
0
1.28414e-13
3.85242e-13
1.28427e-13
2.15835e-14
2.50475e-17
2.56831e-13
1.28441e-13
1.28441e-13
3.75928e-17
7.19321e-15
7.19323e-15
7.19395e-15
2.50762e-17
2.56849e-13
1.43894e-14
1.43888e-14
1.52232e-30
1.43903e-14
1.4391e-14
7.19623e-15
1.40665e-18
1.40686e-18
7.19699e-15
2.87838e-14
7.19774e-15
2.5677e-13
2.81573e-18
3.8522e-13
1.28374e-13
1.43922e-14
2.15894e-14
7.19788e-15
2.56775e-13
2.81856e-18
7.19865e-15
7.19867e-15
3.52471e-18
7.19942e-15
3.52572e-18
4.23148e-18
1.43954e-14
4.23269e-18
1.28341e-13
1.28354e-13
4.23452e-18
7.19959e-15
7.20031e-15
1.43964e-14
1.28343e-13
1.28331e-13
7.2004e-15
4.94524e-18
2.56777e-13
1.28345e-13
1.2837e-13
4.24122e-18
2.8788e-14
2.15932e-14
2.15946e-14
7.20271e-15
1.44005e-14
2.15962e-14
9.19857e-18
7.20563e-15
9.20122e-18
3.85135e-13
1.28274e-13
2.56737e-13
1.28287e-13
1.43995e-14
7.79238e-18
7.79351e-18
2.56741e-13
3.85182e-13
7.20304e-15
7.20235e-15
1.44005e-14
1.43998e-14
7.20525e-15
2.15981e-14
9.22247e-18
1.44035e-14
2.15997e-14
7.2082e-15
1.13573e-17
2.56674e-13
1.13606e-17
7.20758e-15
1.28243e-13
1.13655e-17
1.44046e-14
2.56691e-13
6.42021e-13
5.13613e-13
6.42088e-13
1.28322e-13
1.43992e-14
2.56784e-13
6.40142e-18
2.15965e-14
2.1598e-14
7.11577e-18
1.28299e-13
1.28324e-13
1.28312e-13
1.4401e-14
7.20444e-15
1.28313e-13
5.13673e-13
5.13688e-13
2.56819e-13
1.28378e-13
7.20101e-15
3.56408e-18
4.27751e-18
1.28392e-13
3.85292e-13
2.56862e-13
2.14e-18
1.43966e-14
2.14062e-18
2.85457e-18
2.14124e-18
1.43982e-14
2.87929e-14
4.28434e-18
1.28371e-13
2.56844e-13
3.85306e-13
3.85332e-13
3.85346e-13
7.14679e-19
2.70235e-29
7.14887e-19
1.43958e-14
7.15095e-19
3.85365e-13
3.85379e-13
1.28477e-13
7.19657e-15
7.19659e-15
2.15934e-14
7.19735e-15
2.56907e-13
0
1.28467e-13
2.56935e-13
2.56948e-13
1.28494e-13
1.28507e-13
3.83711e-17
7.19539e-15
7.19612e-15
3.83879e-17
2.56966e-13
3.83991e-17
1.28522e-13
2.56981e-13
1.43932e-14
7.19483e-15
2.56984e-13
5.12436e-17
7.19489e-15
1.43941e-14
2.15927e-14
2.15942e-14
2.1595e-14
7.18435e-19
2.56925e-13
2.56939e-13
1.28476e-13
1.28296e-17
1.2849e-13
6.424e-13
3.85459e-13
2.87907e-14
1.4394e-14
7.19736e-15
1.43955e-14
1.28446e-17
1.28493e-13
1.28493e-13
2.57005e-17
2.57042e-17
7.1975e-15
7.19752e-15
1.28578e-17
7.19828e-15
7.1983e-15
7.19905e-15
7.19907e-15
1.28471e-13
1.28472e-13
0
0
0
7.19919e-15
7.19921e-15
7.217e-19
7.21805e-19
7.21911e-19
1.28475e-13
7.22123e-19
7.19934e-15
1.28476e-13
7.2001e-15
2.15982e-14
7.20087e-15
7.20161e-15
1.28452e-13
3.85422e-13
1.44615e-18
7.23183e-19
1.28466e-13
7.20029e-15
7.23501e-19
1.28468e-13
1.44e-14
2.15997e-14
7.20184e-15
1.28443e-13
1.28444e-13
1.28457e-13
1.28457e-13
1.44892e-18
1.44913e-18
1.44011e-14
7.20129e-15
2.89954e-18
2.17498e-18
2.56946e-13
2.56959e-13
2.56973e-13
2.56987e-13
1.11421e-25
1.43993e-14
1.44001e-14
2.16009e-14
2.16017e-14
7.20299e-15
3.63083e-18
2.56941e-13
2.56941e-13
2.56968e-13
1.28465e-13
1.44012e-14
1.44019e-14
2.18075e-18
1.28453e-13
1.28467e-13
2.18171e-18
1.44021e-14
2.18236e-18
5.13977e-13
3.85484e-13
1.28508e-13
1.28508e-13
1.28522e-13
1.28522e-13
1.43996e-14
1.43996e-14
7.20055e-15
7.20057e-15
1.28498e-13
1.28498e-13
1.28512e-13
3.85536e-13
1.28525e-13
1.28552e-13
2.57053e-13
7.19782e-15
5.20782e-17
1.28553e-13
7.19788e-15
5.21013e-17
3.90817e-17
7.19795e-15
3.90933e-17
3.90991e-17
7.19874e-15
7.19876e-15
1.28544e-13
5.14099e-13
3.85595e-13
1.28597e-13
2.57117e-13
1.4397e-14
1.04403e-16
3.85626e-13
7.19529e-15
2.57147e-13
2.57134e-13
2.57174e-13
7.71251e-13
3.85725e-13
1.43916e-14
2.15929e-14
2.87957e-14
1.56861e-16
2.57167e-13
3.85731e-13
8.99821e-13
2.57247e-13
7.18824e-15
2.15919e-14
2.87934e-14
1.2871e-13
1.28698e-13
7.19054e-15
1.43929e-14
7.19131e-15
1.57164e-16
1.43937e-14
1.43945e-14
1.44131e-16
1.28662e-13
1.43953e-14
7.19365e-15
1.2865e-13
1.31126e-16
7.19444e-15
2.15981e-14
7.19522e-15
2.57159e-13
2.57173e-13
1.28652e-13
2.57201e-13
2.57201e-13
7.19313e-15
1.43951e-14
2.87999e-14
2.15987e-14
9.19661e-17
9.19798e-17
9.19935e-17
9.20073e-17
1.43991e-14
7.19699e-15
6.57489e-17
7.19777e-15
1.28606e-13
2.57146e-13
3.85701e-13
2.57174e-13
1.18454e-16
2.57202e-13
2.57203e-13
1.44842e-16
1.28688e-13
1.28688e-13
7.19357e-15
1.4396e-14
1.43968e-14
1.43976e-14
1.43984e-14
1.05466e-16
9.22963e-17
7.19666e-15
9.23239e-17
2.57186e-13
2.57187e-13
1.28667e-13
1.28667e-13
3.85778e-13
2.5723e-13
1.71638e-16
3.85808e-13
1.7169e-16
7.1917e-15
1.71741e-16
1.28736e-13
2.57275e-13
7.19178e-15
1.43947e-14
7.19256e-15
1.28725e-13
1.71922e-16
2.15986e-14
1.71973e-16
1.45538e-16
1.43965e-14
2.57256e-13
2.57257e-13
1.72102e-16
7.1935e-15
1.43967e-14
1.43975e-14
1.43983e-14
1.4399e-14
7.19657e-15
1.28665e-13
5.14343e-13
3.85798e-13
1.59102e-16
1.43978e-14
2.16012e-14
1.43994e-14
7.19673e-15
1.06148e-16
7.19751e-15
3.60115e-14
2.88088e-14
2.57166e-13
1.28604e-13
6.64024e-17
1.28618e-13
1.28631e-13
1.28632e-13
2.57211e-13
2.57212e-13
1.28673e-13
7.19776e-15
2.16045e-14
7.19854e-15
2.57216e-13
7.98151e-17
2.16055e-14
7.98391e-17
1.28636e-13
1.2865e-13
2.5722e-13
9.32019e-17
7.19798e-15
1.28665e-13
1.28665e-13
1.06581e-16
2.57251e-13
1.28679e-13
1.33286e-16
1.28694e-13
1.28707e-13
1.28708e-13
1.28721e-13
2.57297e-13
3.85886e-13
2.57325e-13
2.00171e-16
7.19305e-15
1.43974e-14
7.19384e-15
1.28751e-13
1.73613e-16
2.16026e-14
2.16035e-14
7.19618e-15
7.19695e-15
7.19697e-15
1.20303e-16
1.28701e-13
1.28701e-13
1.28715e-13
1.28716e-13
1.28729e-13
1.4717e-16
1.60574e-16
7.1964e-15
7.19567e-15
2.57302e-13
1.28732e-13
7.19573e-15
7.19575e-15
1.47349e-16
1.47371e-16
7.19656e-15
2.16063e-14
2.16071e-14
7.19888e-15
9.38529e-17
9.38672e-17
7.19969e-15
7.19971e-15
1.2867e-13
8.05065e-17
9.39385e-17
2.57262e-13
7.19981e-15
2.16093e-14
1.44057e-14
1.44065e-14
2.16125e-14
2.16133e-14
7.20445e-15
2.57187e-13
2.57188e-13
1.4409e-14
1.44091e-14
0
2.57191e-13
3.85788e-13
2.5722e-13
1.28637e-13
7.2024e-15
7.20243e-15
1.44087e-14
3.60252e-14
2.16158e-14
7.20704e-15
1.44126e-14
2.26437e-18
3.85747e-13
5.14362e-13
2.57188e-13
7.2049e-15
1.34812e-17
7.2057e-15
2.16164e-14
7.2065e-15
1.28576e-13
1.51188e-18
2.16182e-14
7.20734e-15
1.28551e-13
3.85775e-13
1.28565e-13
2.16177e-14
1.44134e-14
7.20823e-15
1.4415e-14
3.02839e-18
3.85742e-13
1.28554e-13
2.27233e-18
2.27268e-18
7.20838e-15
2.27337e-18
3.03163e-18
2.27407e-18
3.03256e-18
7.20849e-15
1.28558e-13
3.85782e-13
1.28572e-13
7.20706e-15
7.20784e-15
1.5179e-18
2.27721e-18
2.16207e-14
2.16215e-14
3.79709e-18
4.5572e-18
1.44167e-14
2.57151e-13
2.57138e-13
7.20957e-15
1.2855e-13
2.57168e-13
1.28564e-13
2.2814e-18
2.28175e-18
2.2821e-18
2.28245e-18
2.2828e-18
2.28315e-18
2.57201e-13
3.85823e-13
1.28608e-13
2.16204e-14
2.88273e-14
7.20914e-15
3.04748e-18
3.04794e-18
3.04841e-18
1.2857e-13
1.2857e-13
1.28584e-13
1.28585e-13
1.52538e-18
1.44156e-14
2.88298e-14
2.88314e-14
2.8833e-14
2.16275e-14
7.21479e-15
7.21558e-15
8.39992e-18
2.57095e-13
8.40251e-18
7.2149e-15
1.4423e-14
7.21571e-15
7.21726e-15
1.44239e-14
1.44254e-14
1.44255e-14
1.22369e-17
1.28415e-13
2.57049e-13
1.14774e-17
1.07139e-17
1.2843e-13
1.07172e-17
1.28444e-13
2.5708e-13
2.57095e-13
3.85746e-13
2.57123e-13
2.57152e-13
1.28515e-13
7.21308e-15
6.13264e-18
2.57168e-13
1.2853e-13
1.44202e-14
1.28544e-13
2.57171e-13
2.57199e-13
3.85841e-13
2.57228e-13
1.28601e-13
1.53553e-18
1.53577e-18
7.20953e-15
7.20955e-15
2.30472e-18
1.28603e-13
5.14537e-13
3.85908e-13
3.8595e-13
5.14597e-13
5.48951e-17
7.20435e-15
7.20514e-15
7.20516e-15
1.28689e-13
2.57337e-13
3.86e-13
2.57366e-13
1.44113e-14
7.20297e-15
1.28719e-13
7.20378e-15
7.20381e-15
6.87573e-17
1.2872e-13
2.57373e-13
2.57387e-13
9.632e-17
2.57416e-13
2.57403e-13
1.44095e-14
1.28778e-13
7.20247e-15
2.16183e-14
1.4412e-14
1.4412e-14
1.28725e-13
6.8907e-17
2.16217e-14
2.16225e-14
4.13635e-17
2.758e-17
1.287e-13
3.86004e-13
2.57374e-13
1.28729e-13
2.57403e-13
3.86064e-13
1.28771e-13
7.20205e-15
7.20207e-15
1.10492e-16
7.20288e-15
2.16211e-14
2.88311e-14
7.20527e-15
4.14667e-17
1.2872e-13
2.57371e-13
2.57399e-13
2.574e-13
7.20385e-15
1.44132e-14
8.30241e-17
6.91975e-17
1.44141e-14
1.44149e-14
7.2063e-15
1.44165e-14
7.20712e-15
3.86022e-13
6.43376e-13
2.57396e-13
9.70128e-17
1.28754e-13
9.70432e-17
7.20416e-15
2.16234e-14
1.44146e-14
5.54879e-17
1.28729e-13
2.57403e-13
6.93925e-17
8.3284e-17
7.20588e-15
1.44149e-14
5.55488e-17
1.28731e-13
1.28732e-13
7.20599e-15
7.20601e-15
5.55923e-17
5.5601e-17
5.56097e-17
5.56184e-17
1.28735e-13
5.56359e-17
7.20616e-15
5.56533e-17
5.56621e-17
5.56708e-17
7.20702e-15
2.57419e-13
2.57406e-13
7.20552e-15
1.44166e-14
2.16268e-14
4.1799e-17
7.20873e-15
1.28726e-13
3.86069e-13
5.5767e-17
2.57427e-13
1.28742e-13
1.44162e-14
2.16274e-14
7.20734e-15
2.79098e-17
4.18713e-17
1.28716e-13
7.20821e-15
7.20823e-15
7.20903e-15
2.16303e-14
2.16311e-14
7.21145e-15
7.21225e-15
7.21227e-15
2.34979e-18
1.2865e-13
1.28651e-13
3.86051e-13
3.86052e-13
7.21005e-15
2.16318e-14
2.16326e-14
7.21247e-15
3.86044e-13
3.86045e-13
1.44219e-14
1.4422e-14
2.57366e-13
2.57367e-13
0
0
5.14794e-13
5.14795e-13
7.208e-15
7.20802e-15
7.20883e-15
4.20831e-17
2.80598e-17
7.20889e-15
2.80687e-17
1.4421e-14
1.44211e-14
3.86108e-13
1.28703e-13
2.16318e-14
2.16334e-14
1.44229e-14
1.57471e-18
1.44245e-14
1.5752e-18
5.14767e-13
1.28678e-13
1.44231e-14
7.21237e-15
1.57645e-18
1.5767e-18
3.86097e-13
5.14806e-13
1.28723e-13
1.28738e-13
2.57448e-13
4.22499e-17
5.63421e-17
4.22633e-17
7.20866e-15
4.22767e-17
1.28754e-13
1.28755e-13
5.63958e-17
5.64047e-17
5.64137e-17
5.64226e-17
1.44208e-14
7.20885e-15
1.28743e-13
4.23439e-17
4.23506e-17
7.20973e-15
1.28759e-13
2.57463e-13
1.44212e-14
1.44212e-14
7.21063e-15
1.44229e-14
1.44237e-14
2.2325e-25
7.9224e-19
0
1.28707e-13
7.21237e-15
1.25115e-26
1.28708e-13
7.21243e-15
7.21246e-15
7.93249e-19
7.93376e-19
2.16384e-14
7.21334e-15
2.57393e-13
1.28697e-13
2.57423e-13
2.57437e-13
3.86179e-13
3.86194e-13
4.25398e-17
5.67288e-17
4.25534e-17
5.67469e-17
1.28771e-13
2.57515e-13
2.57515e-13
2.16338e-14
1.4421e-14
3.86234e-13
2.57519e-13
1.28817e-13
2.57549e-13
9.94657e-17
7.20663e-15
1.44205e-14
2.88466e-14
1.44222e-14
4.26622e-17
1.28777e-13
1.28778e-13
1.44231e-14
1.44232e-14
7.21161e-15
2.16381e-14
1.44257e-14
7.97823e-19
2.57461e-13
3.862e-13
2.57491e-13
2.57506e-13
5.14999e-13
2.57536e-13
1.44213e-14
1.44221e-14
1.44229e-14
5.70472e-17
4.27922e-17
1.44239e-14
2.16383e-14
2.88527e-14
2.16408e-14
1.28715e-13
1.28701e-13
1.2873e-13
3.86205e-13
7.21371e-15
1.44267e-14
8.00642e-19
7.21458e-15
8.00899e-19
1.28718e-13
7.21464e-15
8.01285e-19
2.57468e-13
1.28734e-13
0
0
0
7.214e-15
1.25143e-26
1.44289e-14
1.44281e-14
7.21649e-15
1.44298e-14
2.57448e-13
3.21185e-18
1.28725e-13
2.5745e-13
7.21502e-15
1.60696e-18
1.44301e-14
1.44302e-14
7.21752e-15
1.44319e-14
4.02064e-18
2.57428e-13
4.02194e-18
2.57458e-13
2.57444e-13
1.60955e-18
1.28716e-13
2.5749e-13
3.8625e-13
2.5752e-13
1.43747e-17
7.21298e-15
7.21381e-15
1.44285e-14
1.6754e-25
7.21549e-15
2.57526e-13
7.7255e-13
3.8632e-13
2.57586e-13
2.57601e-13
1.28851e-13
1.00818e-16
7.20921e-15
1.00851e-16
1.28853e-13
1.28868e-13
7.20929e-15
7.20851e-15
1.28854e-13
1.00949e-16
1.00965e-16
7.2094e-15
1.28871e-13
5.15166e-13
3.86426e-13
1.44352e-16
7.20627e-15
1.28916e-13
3.8646e-13
2.57703e-13
2.88505e-14
2.88506e-14
1.28904e-13
2.57678e-13
7.20725e-15
1.59045e-16
1.28905e-13
7.2065e-15
1.44228e-14
7.20735e-15
2.57669e-13
1.28907e-13
1.28922e-13
2.577e-13
7.20664e-15
2.1637e-14
2.16387e-14
7.20833e-15
1.28881e-13
1.28896e-13
2.57677e-13
7.20841e-15
7.20762e-15
1.28898e-13
1.28913e-13
1.44243e-14
1.44235e-14
1.28885e-13
1.289e-13
2.57684e-13
1.28915e-13
7.20781e-15
1.44238e-14
7.20867e-15
1.44255e-14
7.20952e-15
1.28874e-13
1.28889e-13
1.2889e-13
1.44257e-14
1.44258e-14
8.72617e-17
2.57666e-13
2.57667e-13
1.28907e-13
1.4426e-14
1.44252e-14
2.5767e-13
1.01922e-16
1.16501e-16
1.01955e-16
2.8859e-14
2.16435e-14
1.44296e-14
7.21319e-15
1.28824e-13
7.21405e-15
1.44306e-14
2.91681e-17
1.28811e-13
7.21496e-15
7.21498e-15
3.86406e-13
1.28812e-13
7.21341e-15
1.28828e-13
1.4431e-14
7.21429e-15
1.28814e-13
1.44319e-14
1.4432e-14
2.16505e-14
1.44337e-14
1.28758e-13
1.6386e-18
1.63887e-18
1.28774e-13
1.28774e-13
1.28789e-13
3.86398e-13
5.15218e-13
1.28834e-13
2.57669e-13
6.44072e-13
1.28894e-13
2.16449e-14
1.44286e-14
2.16475e-14
7.21311e-15
2.93167e-17
2.16485e-14
2.93263e-17
1.28824e-13
7.21568e-15
1.44331e-14
2.16513e-14
1.44348e-14
1.28782e-13
1.28782e-13
2.57609e-13
3.86423e-13
3.86453e-13
5.15282e-13
5.15313e-13
2.57716e-13
7.21101e-15
2.16463e-14
7.21187e-15
1.28889e-13
2.16481e-14
2.16482e-14
1.28861e-13
1.28861e-13
7.21448e-15
1.44323e-14
7.21534e-15
1.28848e-13
2.94521e-17
7.21541e-15
7.21626e-15
7.21628e-15
1.28836e-13
1.28836e-13
1.28851e-13
1.28852e-13
4.42366e-17
1.44337e-14
2.16518e-14
1.44354e-14
7.21813e-15
7.21898e-15
7.21901e-15
1.65432e-18
3.86447e-13
1.28796e-13
1.44357e-14
8.27709e-19
7.21914e-15
2.16558e-14
1.44384e-14
3.31303e-18
3.31358e-18
2.57599e-13
1.2877e-13
1.44386e-14
2.57616e-13
2.57602e-13
2.8875e-14
2.16573e-14
3.86422e-13
1.28758e-13
1.44389e-14
2.16593e-14
2.16593e-14
7.22451e-15
7.22453e-15
6.64365e-18
1.28717e-13
2.57553e-13
1.28732e-13
2.16615e-14
2.16615e-14
1.28704e-13
7.48279e-18
7.22557e-15
7.22643e-15
1.28705e-13
2.5753e-13
6.6569e-18
1.28721e-13
6.65911e-18
5.82769e-18
1.28722e-13
5.82963e-18
5.8306e-18
5.83157e-18
1.28739e-13
1.28739e-13
5.00099e-18
2.16628e-14
5.00265e-18
3.86401e-13
7.22433e-15
1.44437e-14
1.44446e-14
7.22607e-15
7.22693e-15
7.22695e-15
2.57546e-13
1.28699e-13
6.68132e-18
1.28715e-13
7.22623e-15
6.68467e-18
2.57566e-13
6.6869e-18
5.85201e-18
7.22635e-15
2.16649e-14
1.44469e-14
2.57556e-13
5.15247e-13
6.44147e-13
5.1531e-13
1.28809e-13
2.51178e-18
1.44414e-14
2.51262e-18
2.57652e-13
1.28811e-13
1.44416e-14
1.44416e-14
1.28798e-13
2.57656e-13
2.57671e-13
1.67732e-18
8.38801e-19
2.57689e-13
1.28845e-13
7.22016e-15
1.11772e-25
2.57707e-13
2.57723e-13
1.49879e-17
2.99808e-17
2.5774e-13
1.28893e-13
1.28908e-13
1.28909e-13
6.00118e-17
1.44375e-14
2.16579e-14
2.16597e-14
2.16606e-14
8.41336e-19
2.57703e-13
2.57719e-13
1.28867e-13
1.28883e-13
3.8662e-13
2.57767e-13
7.21729e-15
7.21731e-15
7.21817e-15
1.44389e-14
1.44398e-14
7.21993e-15
1.28871e-13
2.57744e-13
7.21999e-15
1.444e-14
1.44418e-14
1.44418e-14
1.68805e-18
1.68834e-18
1.44436e-14
1.44437e-14
2.16664e-14
1.44455e-14
1.28771e-13
1.28786e-13
2.57664e-13
2.5768e-13
3.86574e-13
3.8659e-13
2.57742e-13
7.22122e-15
1.50992e-17
2.57745e-13
1.44417e-14
1.44418e-14
7.22218e-15
1.28866e-13
1.69375e-18
5.11424e-29
2.57735e-13
1.44429e-14
1.44429e-14
7.22319e-15
1.69547e-18
7.22408e-15
3.61095e-14
2.16682e-14
1.44492e-14
7.22757e-15
1.28751e-13
6.78991e-18
6.79106e-18
2.57655e-13
5.15433e-13
1.28798e-13
3.39783e-18
4.24801e-18
1.44471e-14
1.4448e-14
7.22698e-15
1.28785e-13
7.22788e-15
7.22705e-15
6.80488e-18
7.22795e-15
2.57665e-13
2.57666e-13
2.16713e-14
2.88935e-14
7.22977e-15
1.28743e-13
8.51764e-18
1.4452e-14
7.23072e-15
1.2873e-13
1.2873e-13
8.52488e-18
1.28746e-13
2.57645e-13
2.57661e-13
1.28778e-13
5.97248e-18
1.44508e-14
1.44508e-14
7.68283e-18
2.57666e-13
5.1547e-13
1.28796e-13
7.22681e-15
7.22769e-15
5.12711e-18
1.28797e-13
1.28813e-13
1.28813e-13
7.22696e-15
2.16724e-14
7.22786e-15
6.8443e-18
2.57707e-13
1.28785e-13
4.27988e-18
2.57709e-13
2.5774e-13
3.8665e-13
2.56968e-18
2.16705e-14
2.16714e-14
1.44502e-14
1.44511e-14
7.22902e-15
7.2299e-15
6.86067e-18
7.23081e-15
1.44531e-14
1.2876e-13
1.28761e-13
7.72484e-18
7.23093e-15
7.23096e-15
2.89016e-14
2.89017e-14
1.28702e-13
5.15452e-13
2.57635e-13
7.23196e-15
1.44562e-14
2.16797e-14
1.11791e-17
2.57623e-13
1.2872e-13
1.28736e-13
1.28736e-13
3.86593e-13
6.44436e-13
2.5772e-13
5.16666e-18
2.57752e-13
3.86676e-13
1.28862e-13
2.57801e-13
2.57802e-13
7.22462e-15
1.28909e-13
3.86745e-13
0
1.44468e-14
2.16716e-14
2.16725e-14
2.16743e-14
1.44513e-14
1.28836e-13
3.86693e-13
5.15638e-13
3.86742e-13
1.28914e-13
2.5786e-13
2.57861e-13
1.28962e-13
1.28962e-13
4.62958e-17
3.86843e-13
5.15776e-13
1.29026e-13
1.08098e-16
1.08116e-16
1.08135e-16
1.08154e-16
1.29043e-13
7.21831e-15
7.21747e-15
2.16681e-14
2.16673e-14
4.63995e-17
7.22102e-15
7.22191e-15
1.28985e-13
1.2897e-13
1.29001e-13
2.57925e-13
7.74259e-17
7.74393e-17
1.29018e-13
1.29019e-13
9.29752e-17
9.29913e-17
2.57978e-13
2.57979e-13
1.29067e-13
1.44427e-14
2.16667e-14
1.29038e-13
1.29038e-13
2.57999e-13
1.29054e-13
7.21714e-15
2.58017e-13
1.29071e-13
7.21634e-15
1.29088e-13
2.58036e-13
7.2164e-15
1.70986e-16
1.29089e-13
1.29121e-13
2.58056e-13
1.86659e-16
7.21479e-15
7.21481e-15
1.29123e-13
2.58076e-13
1.29139e-13
7.21402e-15
2.0246e-16
1.29141e-13
2.0253e-16
2.02565e-16
2.026e-16
3.87069e-13
3.87071e-13
7.21157e-15
2.16627e-14
1.44381e-14
7.21425e-15
7.21427e-15
1.87275e-16
1.87308e-16
7.21521e-15
7.21523e-15
7.21613e-15
7.21615e-15
7.21705e-15
1.56253e-16
2.58064e-13
1.29118e-13
7.21626e-15
7.21628e-15
2.58083e-13
2.58084e-13
1.87732e-16
7.21549e-15
1.44415e-14
7.21641e-15
2.16695e-14
4.33478e-14
1.44461e-14
2.57997e-13
3.86981e-13
7.22093e-15
2.88978e-14
7.22185e-15
2.89015e-14
4.33542e-14
1.25361e-26
1.75772e-18
1.25346e-26
2.57911e-13
0
1.44529e-14
1.44529e-14
7.22823e-15
1.75987e-18
1.28927e-13
7.2283e-15
1.76079e-18
2.64165e-18
7.22837e-15
7.22928e-15
1.28929e-13
3.86867e-13
2.57923e-13
1.28962e-13
7.22675e-15
3.13323e-27
1.28963e-13
1.44536e-14
1.44537e-14
7.22863e-15
7.22866e-15
1.28933e-13
7.22959e-15
7.22873e-15
2.57901e-13
1.28935e-13
7.2288e-15
1.44559e-14
2.65138e-18
1.28921e-13
2.65231e-18
7.2298e-15
1.4457e-14
2.16851e-14
7.23164e-15
1.28876e-13
7.23257e-15
5.31115e-18
6.19743e-18
1.446e-14
7.23355e-15
1.28863e-13
7.08776e-18
6.20288e-18
1.28864e-13
1.44611e-14
1.44612e-14
3.86832e-13
1.28849e-13
1.28897e-13
6.44837e-13
3.869e-13
1.44579e-14
1.44571e-14
7.23212e-15
2.16867e-14
1.289e-13
1.28885e-13
1.28917e-13
5.33175e-18
7.23138e-15
1.28902e-13
1.28918e-13
7.23234e-15
1.44594e-14
5.33739e-18
5.33833e-18
1.28905e-13
7.23335e-15
1.44605e-14
7.23429e-15
1.2889e-13
5.1588e-13
1.28907e-13
7.23171e-15
1.28924e-13
1.28924e-13
7.23178e-15
2.16883e-14
7.23272e-15
6.24347e-18
5.35249e-18
2.57901e-13
2.57917e-13
7.23284e-15
3.57085e-18
1.28912e-13
3.57212e-18
1.28929e-13
3.57338e-18
3.57402e-18
7.23212e-15
3.57528e-18
1.28931e-13
2.57958e-13
2.57959e-13
1.2898e-13
7.23047e-15
7.2296e-15
2.68479e-18
1.44593e-14
7.23146e-15
3.58163e-18
3.58226e-18
7.23243e-15
1.44613e-14
4.48021e-18
2.57937e-13
7.23342e-15
3.58608e-18
2.57939e-13
7.2326e-15
7.23262e-15
4.48579e-18
4.48658e-18
1.2894e-13
1.2894e-13
2.57977e-13
2.57978e-13
7.23099e-15
1.44602e-14
7.23194e-15
2.57981e-13
2.57982e-13
1.79783e-18
1.28992e-13
1.79847e-18
1.44597e-14
1.79911e-18
2.69915e-18
1.79975e-18
1.28978e-13
2.58022e-13
2.58023e-13
1.29028e-13
2.58056e-13
3.87102e-13
3.21608e-17
1.44557e-14
3.21723e-17
2.58093e-13
6.45186e-13
3.87158e-13
1.29144e-13
2.58177e-13
2.58194e-13
1.29178e-13
1.61091e-16
7.22085e-15
1.44508e-14
2.16816e-14
7.22272e-15
2.58167e-13
1.12885e-16
1.29034e-16
1.12925e-16
1.44529e-14
1.44538e-14
7.22469e-15
1.44557e-14
7.22564e-15
2.58127e-13
1.29104e-13
7.2257e-15
8.07911e-17
7.22665e-15
1.44561e-14
2.16883e-14
2.16883e-14
1.44607e-14
2.16912e-14
7.23223e-15
1.28995e-13
2.72047e-18
1.44628e-14
1.44637e-14
1.28981e-13
3.87056e-13
1.28998e-13
7.23242e-15
1.44631e-14
1.28999e-13
2.58031e-13
2.58064e-13
2.58065e-13
0
1.2905e-13
7.23079e-15
1.44607e-14
9.09433e-19
2.58086e-13
1.29035e-13
1.44609e-14
1.44619e-14
7.23187e-15
1.82083e-18
1.82116e-18
1.82149e-18
1.29022e-13
7.2329e-15
7.23201e-15
1.29007e-13
7.23297e-15
1.44642e-14
2.73568e-18
7.23487e-15
1.44652e-14
1.28977e-13
1.28977e-13
7.23496e-15
1.44663e-14
7.23593e-15
1.28963e-13
5.48026e-18
1.44674e-14
1.28964e-13
2.5801e-13
1.28981e-13
7.2361e-15
7.23521e-15
1.28966e-13
4.57349e-18
4.57432e-18
4.57514e-18
4.57597e-18
1.28984e-13
1.28985e-13
3.66276e-18
2.58069e-13
1.29002e-13
1.29035e-13
2.58088e-13
9.16521e-19
7.2328e-15
1.44647e-14
1.83404e-18
1.29022e-13
1.8347e-18
2.5811e-13
5.16255e-13
3.87217e-13
7.23023e-15
2.16935e-14
2.16954e-14
1.44643e-14
1.83737e-18
7.23403e-15
7.23405e-15
1.29026e-13
3.87179e-13
2.5812e-13
0
7.23233e-15
7.23235e-15
7.2333e-15
2.16981e-14
2.16991e-14
1.29014e-13
1.28998e-13
2.17003e-14
7.2362e-15
1.28983e-13
1.44697e-14
2.17024e-14
7.23907e-15
1.44727e-14
2.17054e-14
9.22367e-18
1.28903e-13
7.24196e-15
7.24199e-15
7.24293e-15
1.44758e-14
1.44767e-14
1.20061e-17
1.2932e-17
1.44778e-14
2.57945e-13
3.87018e-13
1.10927e-17
7.24409e-15
1.44771e-14
1.20236e-17
1.28859e-13
2.57967e-13
2.57968e-13
1.2891e-13
5.16187e-13
5.16205e-13
3.87164e-13
2.58088e-13
1.44702e-14
1.29028e-13
2.5809e-13
2.78078e-18
3.70838e-18
2.78179e-18
3.70974e-18
7.23621e-15
7.23716e-15
1.44707e-14
1.29015e-13
1.28999e-13
1.44708e-14
7.23821e-15
1.44728e-14
2.58101e-13
5.1627e-13
2.58136e-13
3.87238e-13
5.16375e-13
3.87291e-13
3.31955e-17
3.32016e-17
7.23194e-15
3.32138e-17
1.661e-17
3.3226e-17
7.23297e-15
2.16999e-14
1.44679e-14
1.2909e-13
2.58181e-13
1.29108e-13
1.29108e-13
7.23313e-15
1.66405e-17
1.29109e-13
1.29126e-13
1.29127e-13
3.33055e-17
1.29144e-13
7.23237e-15
1.44657e-14
1.6665e-17
2.58242e-13
1.2913e-13
7.23155e-15
3.33546e-17
7.23253e-15
1.29148e-13
5.16477e-13
2.58281e-13
8.34635e-17
1.292e-13
1.292e-13
7.22895e-15
7.22898e-15
1.44646e-14
2.16992e-14
1.29169e-13
1.29153e-13
6.68819e-17
3.87411e-13
2.58308e-13
1.44639e-14
1.00397e-16
2.58311e-13
1.00434e-16
1.29223e-13
7.22927e-15
7.22836e-15
7.23026e-15
1.00527e-16
1.29192e-13
1.00564e-16
1.2921e-13
1.29227e-13
2.58354e-13
1.29245e-13
1.3421e-16
1.34235e-16
1.3426e-16
1.44629e-14
2.16982e-14
7.22962e-15
1.29214e-13
2.58345e-13
1.29232e-13
7.22877e-15
1.17652e-16
3.87498e-13
1.2925e-13
1.29285e-13
1.29268e-13
1.44616e-14
2.89336e-14
3.61702e-14
7.23086e-15
1.29186e-13
1.29204e-13
1.29204e-13
7.23095e-15
8.42401e-17
7.23194e-15
7.23102e-15
1.29189e-13
1.29207e-13
2.58347e-13
7.23111e-15
2.17019e-14
6.74925e-17
5.16616e-13
3.87493e-13
1.2926e-13
2.58403e-13
2.58421e-13
1.52028e-16
1.29313e-13
3.87585e-13
2.58475e-13
1.29348e-13
1.29365e-13
2.58512e-13
7.22293e-15
1.44582e-14
1.29367e-13
2.20006e-16
2.16956e-14
2.16966e-14
1.86264e-16
1.44632e-14
3.61715e-14
1.44652e-14
7.23074e-15
1.01693e-16
2.58388e-13
2.58406e-13
1.18709e-16
1.44655e-14
1.29272e-13
7.2309e-15
2.89389e-14
1.44686e-14
7.23288e-15
1.29206e-13
2.58363e-13
7.23295e-15
1.44688e-14
7.23395e-15
5.09896e-17
7.23494e-15
2.17078e-14
7.23595e-15
2.58319e-13
2.5832e-13
3.40314e-17
3.40378e-17
3.40442e-17
1.44722e-14
7.23516e-15
3.13751e-27
1.44733e-14
2.89486e-14
2.17124e-14
3.82007e-18
1.44782e-14
7.24106e-15
5.73334e-18
7.24206e-15
2.5823e-13
5.16564e-13
3.87433e-13
1.29133e-13
9.56636e-19
1.29151e-13
7.23841e-15
2.17124e-14
7.23942e-15
1.29119e-13
2.87315e-18
1.44771e-14
7.24047e-15
3.83304e-18
3.83376e-18
3.8745e-13
1.29105e-13
1.44764e-14
7.24062e-15
7.24065e-15
1.29106e-13
3.83883e-18
7.24072e-15
3.84028e-18
3.841e-18
7.24176e-15
1.29109e-13
2.5827e-13
1.29127e-13
2.58306e-13
1.29145e-13
3.87522e-13
1.29163e-13
2.89505e-14
1.44763e-14
2.58328e-13
2.58329e-13
7.2382e-15
7.23823e-15
1.29166e-13
7.23924e-15
1.44766e-14
1.92705e-18
1.2915e-13
1.29151e-13
9.64073e-19
7.23939e-15
7.23941e-15
1.29153e-13
1.29153e-13
1.29171e-13
2.58359e-13
3.87566e-13
2.58396e-13
1.29241e-13
3.87622e-13
3.8764e-13
1.29294e-13
1.2074e-16
7.23197e-15
1.44708e-14
1.44718e-14
1.29279e-13
6.90599e-17
2.89496e-14
1.44739e-14
7.23697e-15
3.45562e-17
2.58409e-13
1.29231e-13
1.44751e-14
1.44752e-14
1.29215e-13
2.58413e-13
1.29233e-13
5.19133e-17
1.29251e-13
3.87651e-13
1.29269e-13
1.03906e-16
3.87689e-13
1.29305e-13
1.3862e-16
1.29324e-13
7.23158e-15
2.58545e-13
5.16935e-13
1.29377e-13
7.22875e-15
1.44682e-14
1.7354e-16
3.87773e-13
1.2938e-13
1.29415e-13
5.17019e-13
3.87848e-13
2.60609e-16
2.78036e-16
1.29469e-13
7.22413e-15
1.44639e-14
7.22515e-15
7.22614e-15
2.43561e-16
3.8786e-13
1.29455e-13
1.44642e-14
1.44652e-14
2.17061e-14
7.22727e-15
1.91626e-16
7.22829e-15
7.22929e-15
2.17094e-14
7.23031e-15
3.87788e-13
1.29374e-13
7.2294e-15
7.2304e-15
1.44706e-14
1.44717e-14
7.23243e-15
2.1714e-14
2.1714e-14
1.44767e-14
1.44768e-14
3.49482e-17
1.44788e-14
1.44789e-14
0
1.29223e-13
7.2405e-15
2.17206e-14
9.8041e-19
1.29189e-13
9.80788e-19
2.58433e-13
1.29208e-13
1.75145e-17
3.36218e-25
2.17212e-14
2.17222e-14
1.44835e-14
1.29176e-13
2.58387e-13
7.2428e-15
1.29195e-13
2.58408e-13
1.44828e-14
2.17238e-14
2.17258e-14
3.93527e-18
5.90404e-18
1.4486e-14
7.24697e-15
7.24699e-15
6.89337e-18
2.58346e-13
3.87582e-13
3.87618e-13
1.29165e-13
7.2432e-15
7.24421e-15
2.9583e-18
2.58405e-13
1.29185e-13
7.24333e-15
1.97373e-18
2.96116e-18
7.2434e-15
1.29187e-13
7.24444e-15
1.97564e-18
3.87654e-13
1.29207e-13
1.29225e-13
1.29225e-13
0
0
0
0
7.24172e-15
1.57018e-26
9.89928e-19
1.25598e-26
9.90313e-19
6.28179e-27
1.2923e-13
7.2419e-15
1.25611e-26
1.29231e-13
0
0
1.2925e-13
7.24204e-15
2.17252e-14
1.29234e-13
2.58469e-13
3.87758e-13
1.29253e-13
2.17236e-14
1.77294e-17
2.58509e-13
1.77363e-17
7.2403e-15
1.44836e-14
7.24134e-15
7.24336e-15
0
1.98989e-18
1.44849e-14
7.24445e-15
1.29223e-13
1.29206e-13
2.89711e-14
2.89722e-14
1.44902e-14
5.97901e-18
6.97687e-18
1.44913e-14
2.1735e-14
2.17361e-14
1.44954e-14
1.44965e-14
1.44975e-14
1.29748e-17
7.25681e-15
7.25584e-15
1.49797e-17
1.39838e-17
1.28999e-13
1.39892e-17
1.29018e-13
1.29018e-13
1.29036e-13
1.29037e-13
1.20025e-17
1.29055e-13
3.87596e-13
1.29074e-13
1.44954e-14
1.44964e-14
1.29075e-13
1.2019e-17
7.2533e-15
1.20237e-17
1.44977e-14
1.44987e-14
7.25641e-15
1.40387e-17
1.40414e-17
1.40442e-17
1.29026e-13
7.25755e-15
1.30487e-17
1.29009e-13
1.29045e-13
2.58306e-13
1.29064e-13
1.20568e-17
7.25473e-15
1.20616e-17
1.29065e-13
1.29066e-13
1.44986e-14
7.25486e-15
1.30796e-17
2.17436e-14
1.45008e-14
7.259e-15
1.51037e-17
1.28997e-13
1.51096e-17
2.58302e-13
3.87588e-13
2.58339e-13
1.29071e-13
1.10913e-17
1.10935e-17
1.10957e-17
1.29091e-13
2.5838e-13
1.29109e-13
3.87708e-13
3.87709e-13
3.87765e-13
6.46349e-13
3.87821e-13
2.58567e-13
7.24439e-15
7.24341e-15
1.0111e-18
7.24447e-15
1.29276e-13
7.24553e-15
1.44891e-14
2.02419e-18
7.24662e-15
2.17359e-14
1.44923e-14
7.24973e-15
1.29208e-13
2.58488e-13
1.29227e-13
1.29227e-13
7.24783e-15
1.29246e-13
1.29228e-13
1.44918e-14
1.44928e-14
7.24898e-15
1.29212e-13
1.29212e-13
4.06205e-18
4.06285e-18
4.06366e-18
4.06447e-18
1.29233e-13
2.58539e-13
3.87864e-13
2.58577e-13
2.58614e-13
2.58615e-13
3.63203e-17
7.24323e-15
7.24326e-15
1.44896e-14
2.89803e-14
1.01854e-18
5.17187e-13
1.29293e-13
1.81891e-17
1.29312e-13
1.81964e-17
1.82e-17
1.82036e-17
2.58645e-13
3.8796e-13
2.58684e-13
1.29388e-13
9.11088e-17
9.1127e-17
3.8804e-13
2.58725e-13
2.5878e-13
2.58763e-13
1.29501e-13
2.58801e-13
2.58839e-13
1.2952e-13
1.44785e-14
2.17255e-14
2.17266e-14
7.23678e-15
7.23783e-15
2.17299e-14
2.89771e-14
2.17332e-14
1.44892e-14
3.65822e-17
3.87991e-13
2.58686e-13
7.24211e-15
7.24214e-15
7.24319e-15
7.24321e-15
1.29364e-13