/*--------------------------------*- C++ -*----------------------------------*\
| =========                 |                                                 |
| \\      /  F ield         | OpenFOAM: The Open Source CFD Toolbox           |
|  \\    /   O peration     | Version:  2.3.0                                 |
|   \\  /    A nd           | Web:      www.OpenFOAM.org                      |
|    \\/     M anipulation  |                                                 |
\*---------------------------------------------------------------------------*/
FoamFile
{
    version     2.0;
    format      ascii;
    class       volScalarField;
    location    "1e-06";
    object      rho;
}
// * * * * * * * * * * * * * * * * * * * * * * * * * * * * * * * * * * * * * //

dimensions      [1 -3 0 0 0 0 0];

internalField   nonuniform List<scalar> 
10000
(
451.993
451.973
451.953
451.933
451.913
451.892
451.872
451.852
451.832
451.812
451.792
451.771
451.751
451.731
451.711
451.691
451.671
451.65
451.63
451.61
451.59
451.57
451.55
451.529
451.509
451.489
451.469
451.449
451.428
451.408
451.388
451.368
451.348
451.327
451.307
451.287
451.267
451.247
451.226
451.206
451.186
451.166
451.146
451.125
451.105
451.085
451.065
451.044
451.024
451.004
450.984
450.964
450.943
450.923
450.903
450.883
450.862
450.842
450.822
450.802
450.781
450.761
450.741
450.721
450.7
450.68
450.66
450.639
450.619
450.599
450.579
450.558
450.538
450.518
450.498
450.477
450.457
450.437
450.416
450.396
450.376
450.356
450.335
450.315
450.295
450.274
450.254
450.234
450.213
450.193
450.173
450.152
450.132
450.112
450.092
450.071
450.051
450.031
450.01
449.99
449.97
449.949
449.929
449.909
449.888
449.868
449.847
449.827
449.807
449.786
449.766
449.746
449.725
449.705
449.685
449.664
449.644
449.624
449.603
449.583
449.562
449.542
449.522
449.501
449.481
449.461
449.44
449.42
449.399
449.379
449.359
449.338
449.318
449.297
449.277
449.257
449.236
449.216
449.195
449.175
449.155
449.134
449.114
449.093
449.073
449.053
449.032
449.012
448.991
448.971
448.95
448.93
448.91
448.889
448.869
448.848
448.828
448.807
448.787
448.766
448.746
448.725
448.705
448.685
448.664
448.644
448.623
448.603
448.582
448.562
448.541
448.521
448.5
448.48
448.459
448.439
448.418
448.398
448.377
448.357
448.336
448.316
448.295
448.275
448.254
448.234
448.213
448.193
448.172
448.152
448.131
448.111
448.09
448.07
448.049
448.029
448.008
447.988
447.967
447.947
447.926
447.906
447.885
447.865
447.844
447.824
447.803
447.782
447.762
447.741
447.721
447.7
447.68
447.659
447.639
447.618
447.597
447.577
447.556
447.536
447.515
447.495
447.474
447.453
447.433
447.412
447.392
447.371
447.35
447.33
447.309
447.289
447.268
447.248
447.227
447.206
447.186
447.165
447.144
447.124
447.103
447.083
447.062
447.041
447.021
447
446.98
446.959
446.938
446.918
446.897
446.876
446.856
446.835
446.814
446.794
446.773
446.753
446.732
446.711
446.691
446.67
446.649
446.629
446.608
446.587
446.567
446.546
446.525
446.505
446.484
446.463
446.443
446.422
446.401
446.381
446.36
446.339
446.318
446.298
446.277
446.256
446.236
446.215
446.194
446.174
446.153
446.132
446.111
446.091
446.07
446.049
446.029
446.008
445.987
445.966
445.946
445.925
445.904
445.883
445.863
445.842
445.821
445.801
445.78
445.759
445.738
445.718
445.697
445.676
445.655
445.634
445.614
445.593
445.572
445.551
445.531
445.51
445.489
445.468
445.448
445.427
445.406
445.385
445.364
445.344
445.323
445.302
445.281
445.26
445.24
445.219
445.198
445.177
445.156
445.136
445.115
445.094
445.073
445.052
445.032
445.011
444.99
444.969
444.948
444.927
444.907
444.886
444.865
444.844
444.823
444.802
444.782
444.761
444.74
444.719
444.698
444.677
444.656
444.636
444.615
444.594
444.573
444.552
444.531
444.51
444.49
444.469
444.448
444.427
444.406
444.385
444.364
444.343
444.322
444.302
444.281
444.26
444.239
444.218
444.197
444.176
444.155
444.134
444.113
444.093
444.072
444.051
444.03
444.009
443.988
443.967
443.946
443.925
443.904
443.883
443.862
443.841
443.821
443.8
443.779
443.758
443.737
443.716
443.695
443.674
443.653
443.632
443.611
443.59
443.569
443.548
443.527
443.506
443.485
443.464
443.443
443.422
443.401
443.38
443.359
443.338
443.317
443.296
443.275
443.254
443.233
443.212
443.191
443.17
443.149
443.128
443.107
443.086
443.065
443.044
443.023
443.002
442.981
442.96
442.939
442.918
442.897
442.876
442.855
442.834
442.813
442.792
442.771
442.75
442.729
442.708
442.687
442.666
442.644
442.623
442.602
442.581
442.56
442.539
442.518
442.497
442.476
442.455
442.434
442.413
442.392
442.37
442.349
442.328
442.307
442.286
442.265
442.244
442.223
442.202
442.181
442.16
442.138
442.117
442.096
442.075
442.054
442.033
442.012
441.991
441.969
441.948
441.927
441.906
441.885
441.864
441.843
441.821
441.8
441.779
441.758
441.737
441.716
441.695
441.673
441.652
441.631
441.61
441.589
441.568
441.546
441.525
441.504
441.483
441.462
441.441
441.419
441.398
441.377
441.356
441.335
441.313
441.292
441.271
441.25
441.229
441.207
441.186
441.165
441.144
441.123
441.101
441.08
441.059
441.038
441.016
440.995
440.974
440.953
440.932
440.91
440.889
440.868
440.847
440.825
440.804
440.783
440.762
440.74
440.719
440.698
440.677
440.655
440.634
440.613
440.592
440.57
440.549
440.528
440.506
440.485
440.464
440.443
440.421
440.4
440.379
440.357
440.336
440.315
440.294
440.272
440.251
440.23
440.208
440.187
440.166
440.144
440.123
440.102
440.08
440.059
440.038
440.016
439.995
439.974
439.952
439.931
439.91
439.888
439.867
439.846
439.824
439.803
439.782
439.76
439.739
439.718
439.696
439.675
439.654
439.632
439.611
439.589
439.568
439.547
439.525
439.504
439.483
439.461
439.44
439.418
439.397
439.376
439.354
439.333
439.311
439.29
439.269
439.247
439.226
439.204
439.183
439.162
439.14
439.119
439.097
439.076
439.054
439.033
439.012
438.99
438.969
438.947
438.926
438.904
438.883
438.862
438.84
438.819
438.797
438.776
438.754
438.733
438.711
438.69
438.668
438.647
438.625
438.604
438.583
438.561
438.54
438.518
438.497
438.475
438.454
438.432
438.411
438.389
438.368
438.346
438.325
438.303
438.282
438.26
438.239
438.217
438.196
438.174
438.153
438.131
438.109
438.088
438.066
438.045
438.023
438.002
437.98
437.959
437.937
437.916
437.894
437.873
437.851
437.829
437.808
437.786
437.765
437.743
437.722
437.7
437.679
437.657
437.635
437.614
437.592
437.571
437.549
437.527
437.506
437.484
437.463
437.441
437.42
437.398
437.376
437.355
437.333
437.312
437.29
437.268
437.247
437.225
437.203
437.182
437.16
437.139
437.117
437.095
437.074
437.052
437.03
437.009
436.987
436.965
436.944
436.922
436.901
436.879
436.857
436.836
436.814
436.792
436.771
436.749
436.727
436.706
436.684
436.662
436.641
436.619
436.597
436.576
436.554
436.532
436.51
436.489
436.467
436.445
436.424
436.402
436.38
436.359
436.337
436.315
436.293
436.272
436.25
436.228
436.207
436.185
436.163
436.141
436.12
436.098
436.076
436.054
436.033
436.011
435.989
435.967
435.946
435.924
435.902
435.88
435.859
435.837
435.815
435.793
435.772
435.75
435.728
435.706
435.685
435.663
435.641
435.619
435.597
435.576
435.554
435.532
435.51
435.488
435.467
435.445
435.423
435.401
435.379
435.358
435.336
435.314
435.292
435.27
435.248
435.227
435.205
435.183
435.161
435.139
435.117
435.096
435.074
435.052
435.03
435.008
434.986
434.965
434.943
434.921
434.899
434.877
434.855
434.833
434.812
434.79
434.768
434.746
434.724
434.702
434.68
434.658
434.636
434.615
434.593
434.571
434.549
434.527
434.505
434.483
434.461
434.439
434.417
434.396
434.374
434.352
434.33
434.308
434.286
434.264
434.242
434.22
434.198
434.176
434.154
434.132
434.11
434.088
434.067
434.045
434.023
434.001
433.979
433.957
433.935
433.913
433.891
433.869
433.847
433.825
433.803
433.781
433.759
433.737
433.715
433.693
433.671
433.649
433.627
433.605
433.583
433.561
433.539
433.517
433.495
433.473
433.451
433.429
433.407
433.385
433.363
433.341
433.319
433.297
433.275
433.253
433.231
433.209
433.187
433.165
433.143
433.121
433.098
433.076
433.054
433.032
433.01
432.988
432.966
432.944
432.922
432.9
432.878
432.856
432.834
432.812
432.789
432.767
432.745
432.723
432.701
432.679
432.657
432.635
432.613
432.591
432.568
432.546
432.524
432.502
432.48
432.458
432.436
432.414
432.392
432.369
432.347
432.325
432.303
432.281
432.259
432.237
432.214
432.192
432.17
432.148
432.126
432.104
432.081
432.059
432.037
432.015
431.993
431.971
431.948
431.926
431.904
431.882
431.86
431.838
431.815
431.793
431.771
431.749
431.727
431.704
431.682
431.66
431.638
431.616
431.593
431.571
431.549
431.527
431.504
431.482
431.46
431.438
431.416
431.393
431.371
431.349
431.327
431.304
431.282
431.26
431.238
431.215
431.193
431.171
431.149
431.126
431.104
431.082
431.059
431.037
431.015
430.993
430.97
430.948
430.926
430.903
430.881
430.859
430.837
430.814
430.792
430.77
430.747
430.725
430.703
430.68
430.658
430.636
430.614
430.591
430.569
430.547
430.524
430.502
430.48
430.457
430.435
430.413
430.39
430.368
430.345
430.323
430.301
430.278
430.256
430.234
430.211
430.189
430.167
430.144
430.122
430.099
430.077
430.055
430.032
430.01
429.988
429.965
429.943
429.92
429.898
429.876
429.853
429.831
429.808
429.786
429.764
429.741
429.719
429.696
429.674
429.651
429.629
429.607
429.584
429.562
429.539
429.517
429.494
429.472
429.45
429.427
429.405
429.382
429.36
429.337
429.315
429.292
429.27
429.247
429.225
429.202
429.18
429.157
429.135
429.113
429.09
429.068
429.045
429.023
429
428.978
428.955
428.933
428.91
428.888
428.865
428.843
428.82
428.797
428.775
428.752
428.73
428.707
428.685
428.662
428.64
428.617
428.595
428.572
428.55
428.527
428.505
428.482
428.459
428.437
428.414
428.392
428.369
428.347
428.324
428.301
428.279
428.256
428.234
428.211
428.189
428.166
428.143
428.121
428.098
428.076
428.053
428.03
428.008
427.985
427.963
427.94
427.917
427.895
427.872
427.849
427.827
427.804
427.782
427.759
427.736
427.714
427.691
427.668
427.646
427.623
427.6
427.578
427.555
427.533
427.51
427.487
427.465
427.442
427.419
427.397
427.374
427.351
427.328
427.306
427.283
427.26
427.238
427.215
427.192
427.17
427.147
427.124
427.102
427.079
427.056
427.033
427.011
426.988
426.965
426.943
426.92
426.897
426.874
426.852
426.829
426.806
426.783
426.761
426.738
426.715
426.692
426.67
426.647
426.624
426.601
426.579
426.556
426.533
426.51
426.488
426.465
426.442
426.419
426.396
426.374
426.351
426.328
426.305
426.282
426.26
426.237
426.214
426.191
426.168
426.146
426.123
426.1
426.077
426.054
426.032
426.009
425.986
425.963
425.94
425.917
425.895
425.872
425.849
425.826
425.803
425.78
425.757
425.735
425.712
425.689
425.666
425.643
425.62
425.597
425.575
425.552
425.529
425.506
425.483
425.46
425.437
425.414
425.391
425.369
425.346
425.323
425.3
425.277
425.254
425.231
425.208
425.185
425.162
425.139
425.117
425.094
425.071
425.048
425.025
425.002
424.979
424.956
424.933
424.91
424.887
424.864
424.841
424.818
424.795
424.772
424.749
424.726
424.703
424.68
424.657
424.634
424.611
424.588
424.566
424.543
424.52
424.497
424.474
424.451
424.428
424.405
424.382
424.358
424.335
424.312
424.289
424.266
424.243
424.22
424.197
424.174
424.151
424.128
424.105
424.082
424.059
424.036
424.013
423.99
423.967
423.944
423.921
423.898
423.875
423.852
423.829
423.805
423.782
423.759
423.736
423.713
423.69
423.667
423.644
423.621
423.598
423.575
423.551
423.528
423.505
423.482
423.459
423.436
423.413
423.39
423.367
423.343
423.32
423.297
423.274
423.251
423.228
423.205
423.181
423.158
423.135
423.112
423.089
423.066
423.043
423.019
422.996
422.973
422.95
422.927
422.904
422.88
422.857
422.834
422.811
422.788
422.764
422.741
422.718
422.695
422.672
422.648
422.625
422.602
422.579
422.556
422.532
422.509
422.486
422.463
422.439
422.416
422.393
422.37
422.347
422.323
422.3
422.277
422.254
422.23
422.207
422.184
422.16
422.137
422.114
422.091
422.067
422.044
422.021
421.998
421.974
421.951
421.928
421.904
421.881
421.858
421.835
421.811
421.788
421.765
421.741
421.718
421.695
421.671
421.648
421.625
421.601
421.578
421.555
421.531
421.508
421.485
421.461
421.438
421.415
421.391
421.368
421.345
421.321
421.298
421.275
421.251
421.228
421.205
421.181
421.158
421.134
421.111
421.088
421.064
421.041
421.017
420.994
420.971
420.947
420.924
420.9
420.877
420.854
420.83
420.807
420.783
420.76
420.737
420.713
420.69
420.666
420.643
420.619
420.596
420.573
420.549
420.526
420.502
420.479
420.455
420.432
420.408
420.385
420.361
420.338
420.314
420.291
420.268
420.244
420.221
420.197
420.174
420.15
420.127
420.103
420.08
420.056
420.033
420.009
419.986
419.962
419.939
419.915
419.891
419.868
419.844
419.821
419.797
419.774
419.75
419.727
419.703
419.68
419.656
419.633
419.609
419.585
419.562
419.538
419.515
419.491
419.468
419.444
419.42
419.397
419.373
419.35
419.326
419.303
419.279
419.255
419.232
419.208
419.185
419.161
419.137
419.114
419.09
419.067
419.043
419.019
418.996
418.972
418.948
418.925
418.901
418.878
418.854
418.83
418.807
418.783
418.759
418.736
418.712
418.688
418.665
418.641
418.617
418.594
418.57
418.546
418.523
418.499
418.475
418.452
418.428
418.404
418.38
418.357
418.333
418.309
418.286
418.262
418.238
418.214
418.191
418.167
418.143
418.12
418.096
418.072
418.048
418.025
418.001
417.977
417.953
417.93
417.906
417.882
417.858
417.835
417.811
417.787
417.763
417.74
417.716
417.692
417.668
417.644
417.621
417.597
417.573
417.549
417.526
417.502
417.478
417.454
417.43
417.406
417.383
417.359
417.335
417.311
417.287
417.264
417.24
417.216
417.192
417.168
417.144
417.121
417.097
417.073
417.049
417.025
417.001
416.977
416.954
416.93
416.906
416.882
416.858
416.834
416.81
416.786
416.763
416.739
416.715
416.691
416.667
416.643
416.619
416.595
416.571
416.547
416.524
416.5
416.476
416.452
416.428
416.404
416.38
416.356
416.332
416.308
416.284
416.26
416.236
416.212
416.188
416.164
416.141
416.117
416.093
416.069
416.045
416.021
415.997
415.973
415.949
415.925
415.901
415.877
415.853
415.829
415.805
415.781
415.757
415.733
415.709
415.685
415.661
415.637
415.613
415.589
415.565
415.541
415.517
415.493
415.468
415.444
415.42
415.396
415.372
415.348
415.324
415.3
415.276
415.252
415.228
415.204
415.18
415.156
415.132
415.108
415.083
415.059
415.035
415.011
414.987
414.963
414.939
414.915
414.891
414.867
414.842
414.818
414.794
414.77
414.746
414.722
414.698
414.674
414.649
414.625
414.601
414.577
414.553
414.529
414.505
414.48
414.456
414.432
414.408
414.384
414.36
414.335
414.311
414.287
414.263
414.239
414.214
414.19
414.166
414.142
414.118
414.093
414.069
414.045
414.021
413.997
413.972
413.948
413.924
413.9
413.876
413.851
413.827
413.803
413.779
413.754
413.73
413.706
413.682
413.657
413.633
413.609
413.585
413.56
413.536
413.512
413.487
413.463
413.439
413.415
413.39
413.366
413.342
413.317
413.293
413.269
413.245
413.22
413.196
413.172
413.147
413.123
413.099
413.074
413.05
413.026
413.001
412.977
412.953
412.928
412.904
412.88
412.855
412.831
412.807
412.782
412.758
412.733
412.709
412.685
412.66
412.636
412.612
412.587
412.563
412.538
412.514
412.49
412.465
412.441
412.416
412.392
412.368
412.343
412.319
412.294
412.27
412.245
412.221
412.197
412.172
412.148
412.123
412.099
412.074
412.05
412.025
412.001
411.977
411.952
411.928
411.903
411.879
411.854
411.83
411.805
411.781
411.756
411.732
411.707
411.683
411.658
411.634
411.609
411.585
411.56
411.536
411.511
411.487
411.462
411.438
411.413
411.389
411.364
411.34
411.315
411.291
411.266
411.241
411.217
411.192
411.168
411.143
411.119
411.094
411.07
411.045
411.02
410.996
410.971
410.947
410.922
410.897
410.873
410.848
410.824
410.799
410.774
410.75
410.725
410.701
410.676
410.651
410.627
410.602
410.578
410.553
410.528
410.504
410.479
410.454
410.43
410.405
410.38
410.356
410.331
410.306
410.282
410.257
410.232
410.208
410.183
410.158
410.134
410.109
410.084
410.06
410.035
410.01
409.985
409.961
409.936
409.911
409.887
409.862
409.837
409.812
409.788
409.763
409.738
409.714
409.689
409.664
409.639
409.615
409.59
409.565
409.54
409.516
409.491
409.466
409.441
409.417
409.392
409.367
409.342
409.317
409.293
409.268
409.243
409.218
409.193
409.169
409.144
409.119
409.094
409.069
409.045
409.02
408.995
408.97
408.945
408.92
408.896
408.871
408.846
408.821
408.796
408.771
408.747
408.722
408.697
408.672
408.647
408.622
408.597
408.572
408.548
408.523
408.498
408.473
408.448
408.423
408.398
408.373
408.348
408.324
408.299
408.274
408.249
408.224
408.199
408.174
408.149
408.124
408.099
408.074
408.049
408.024
407.999
407.974
407.95
407.925
407.9
407.875
407.85
407.825
407.8
407.775
407.75
407.725
407.7
407.675
407.65
407.625
407.6
407.575
407.55
407.525
407.5
407.475
407.45
407.425
407.4
407.375
407.35
407.325
407.3
407.275
407.25
407.225
407.199
407.174
407.149
407.124
407.099
407.074
407.049
407.024
406.999
406.974
406.949
406.924
406.899
406.874
406.849
406.823
406.798
406.773
406.748
406.723
406.698
406.673
406.648
406.623
406.597
406.572
406.547
406.522
406.497
406.472
406.447
406.421
406.396
406.371
406.346
406.321
406.296
406.271
406.245
406.22
406.195
406.17
406.145
406.12
406.094
406.069
406.044
406.019
405.994
405.968
405.943
405.918
405.893
405.868
405.842
405.817
405.792
405.767
405.741
405.716
405.691
405.666
405.64
405.615
405.59
405.565
405.539
405.514
405.489
405.464
405.438
405.413
405.388
405.363
405.337
405.312
405.287
405.261
405.236
405.211
405.186
405.16
405.135
405.11
405.084
405.059
405.034
405.008
404.983
404.958
404.932
404.907
404.882
404.856
404.831
404.806
404.78
404.755
404.73
404.704
404.679
404.653
404.628
404.603
404.577
404.552
404.527
404.501
404.476
404.45
404.425
404.4
404.374
404.349
404.323
404.298
404.273
404.247
404.222
404.196
404.171
404.145
404.12
404.095
404.069
404.044
404.018
403.993
403.967
403.942
403.916
403.891
403.865
403.84
403.815
403.789
403.764
403.738
403.713
403.687
403.662
403.636
403.611
403.585
403.56
403.534
403.509
403.483
403.458
403.432
403.407
403.381
403.355
403.33
403.304
403.279
403.253
403.228
403.202
403.177
403.151
403.126
403.1
403.074
403.049
403.023
402.998
402.972
402.946
402.921
402.895
402.87
402.844
402.819
402.793
402.767
402.742
402.716
402.69
402.665
402.639
402.614
402.588
402.562
402.537
402.511
402.485
402.46
402.434
402.408
402.383
402.357
402.331
402.306
402.28
402.254
402.229
402.203
402.177
402.152
402.126
402.1
402.075
402.049
402.023
401.998
401.972
401.946
401.92
401.895
401.869
401.843
401.817
401.792
401.766
401.74
401.715
401.689
401.663
401.637
401.611
401.586
401.56
401.534
401.508
401.483
401.457
401.431
401.405
401.38
401.354
401.328
401.302
401.276
401.251
401.225
401.199
401.173
401.147
401.121
401.096
401.07
401.044
401.018
400.992
400.966
400.941
400.915
400.889
400.863
400.837
400.811
400.785
400.76
400.734
400.708
400.682
400.656
400.63
400.604
400.578
400.553
400.527
400.501
400.475
400.449
400.423
400.397
400.371
400.345
400.319
400.293
400.268
400.242
400.216
400.19
400.164
400.138
400.112
400.086
400.06
400.034
400.008
399.982
399.956
399.93
399.904
399.878
399.852
399.826
399.8
399.774
399.748
399.722
399.696
399.67
399.644
399.618
399.592
399.566
399.54
399.514
399.488
399.462
399.436
399.41
399.384
399.358
399.332
399.306
399.28
399.254
399.227
399.201
399.175
399.149
399.123
399.097
399.071
399.045
399.019
398.993
398.967
398.94
398.914
398.888
398.862
398.836
398.81
398.784
398.758
398.732
398.705
398.679
398.653
398.627
398.601
398.575
398.548
398.522
398.496
398.47
398.444
398.418
398.391
398.365
398.339
398.313
398.287
398.261
398.234
398.208
398.182
398.156
398.129
398.103
398.077
398.051
398.025
397.998
397.972
397.946
397.92
397.893
397.867
397.841
397.815
397.788
397.762
397.736
397.71
397.683
397.657
397.631
397.605
397.578
397.552
397.526
397.499
397.473
397.447
397.42
397.394
397.368
397.341
397.315
397.289
397.263
397.236
397.21
397.184
397.157
397.131
397.104
397.078
397.052
397.025
396.999
396.973
396.946
396.92
396.894
396.867
396.841
396.814
396.788
396.762
396.735
396.709
396.682
396.656
396.63
396.603
396.577
396.55
396.524
396.498
396.471
396.445
396.418
396.392
396.365
396.339
396.312
396.286
396.259
396.233
396.207
396.18
396.154
396.127
396.101
396.074
396.048
396.021
395.995
395.968
395.942
395.915
395.889
395.862
395.836
395.809
395.783
395.756
395.73
395.703
395.676
395.65
395.623
395.597
395.57
395.544
395.517
395.491
395.464
395.437
395.411
395.384
395.358
395.331
395.305
395.278
395.251
395.225
395.198
395.172
395.145
395.118
395.092
395.065
395.038
395.012
394.985
394.959
394.932
394.905
394.879
394.852
394.825
394.799
394.772
394.745
394.719
394.692
394.665
394.639
394.612
394.585
394.559
394.532
394.505
394.478
394.452
394.425
394.398
394.372
394.345
394.318
394.291
394.265
394.238
394.211
394.185
394.158
394.131
394.104
394.078
394.051
394.024
393.997
393.97
393.944
393.917
393.89
393.863
393.837
393.81
393.783
393.756
393.729
393.703
393.676
393.649
393.622
393.595
393.568
393.542
393.515
393.488
393.461
393.434
393.407
393.381
393.354
393.327
393.3
393.273
393.246
393.219
393.193
393.166
393.139
393.112
393.085
393.058
393.031
393.004
392.977
392.951
392.924
392.897
392.87
392.843
392.816
392.789
392.762
392.735
392.708
392.681
392.654
392.627
392.6
392.573
392.546
392.519
392.493
392.466
392.439
392.412
392.385
392.358
392.331
392.304
392.277
392.25
392.223
392.196
392.169
392.142
392.115
392.088
392.06
392.033
392.006
391.979
391.952
391.925
391.898
391.871
391.844
391.817
391.79
391.763
391.736
391.709
391.682
391.655
391.627
391.6
391.573
391.546
391.519
391.492
391.465
391.438
391.411
391.384
391.356
391.329
391.302
391.275
391.248
391.221
391.194
391.166
391.139
391.112
391.085
391.058
391.031
391.003
390.976
390.949
390.922
390.895
390.867
390.84
390.813
390.786
390.759
390.731
390.704
390.677
390.65
390.623
390.595
390.568
390.541
390.514
390.486
390.459
390.432
390.405
390.377
390.35
390.323
390.296
390.268
390.241
390.214
390.186
390.159
390.132
390.104
390.077
390.05
390.023
389.995
389.968
389.941
389.913
389.886
389.859
389.831
389.804
389.777
389.749
389.722
389.695
389.667
389.64
389.612
389.585
389.558
389.53
389.503
389.476
389.448
389.421
389.393
389.366
389.339
389.311
389.284
389.256
389.229
389.201
389.174
389.147
389.119
389.092
389.064
389.037
389.009
388.982
388.954
388.927
388.9
388.872
388.845
388.817
388.79
388.762
388.735
388.707
388.68
388.652
388.625
388.597
388.57
388.542
388.515
388.487
388.459
388.432
388.404
388.377
388.349
388.322
388.294
388.267
388.239
388.212
388.184
388.156
388.129
388.101
388.074
388.046
388.018
387.991
387.963
387.936
387.908
387.88
387.853
387.825
387.798
387.77
387.742
387.715
387.687
387.659
387.632
387.604
387.576
387.549
387.521
387.493
387.466
387.438
387.41
387.383
387.355
387.327
387.3
387.272
387.244
387.217
387.189
387.161
387.133
387.106
387.078
387.05
387.023
386.995
386.967
386.939
386.912
386.884
386.856
386.828
386.801
386.773
386.745
386.717
386.689
386.662
386.634
386.606
386.578
386.551
386.523
386.495
386.467
386.439
386.411
386.384
386.356
386.328
386.3
386.272
386.244
386.217
386.189
386.161
386.133
386.105
386.077
386.049
386.022
385.994
385.966
385.938
385.91
385.882
385.854
385.826
385.798
385.771
385.743
385.715
385.687
385.659
385.631
385.603
385.575
385.547
385.519
385.491
385.463
385.435
385.407
385.379
385.351
385.323
385.295
385.267
385.239
385.211
385.183
385.155
385.127
385.099
385.071
385.043
385.015
384.987
384.959
384.931
384.903
384.875
384.847
384.819
384.791
384.763
384.735
384.707
384.679
384.651
384.623
384.595
384.567
384.538
384.51
384.482
384.454
384.426
384.398
384.37
384.342
384.314
384.286
384.257
384.229
384.201
384.173
384.145
384.117
384.089
384.06
384.032
384.004
383.976
383.948
383.92
383.891
383.863
383.835
383.807
383.779
383.75
383.722
383.694
383.666
383.638
383.609
383.581
383.553
383.525
383.496
383.468
383.44
383.412
383.383
383.355
383.327
383.299
383.27
383.242
383.214
383.186
383.157
383.129
383.101
383.072
383.044
383.016
382.987
382.959
382.931
382.902
382.874
382.846
382.817
382.789
382.761
382.732
382.704
382.676
382.647
382.619
382.591
382.562
382.534
382.505
382.477
382.449
382.42
382.392
382.364
382.335
382.307
382.278
382.25
382.221
382.193
382.165
382.136
382.108
382.079
382.051
382.022
381.994
381.965
381.937
381.908
381.88
381.852
381.823
381.795
381.766
381.738
381.709
381.681
381.652
381.624
381.595
381.567
381.538
381.509
381.481
381.452
381.424
381.395
381.367
381.338
381.31
381.281
381.253
381.224
381.195
381.167
381.138
381.11
381.081
381.052
381.024
380.995
380.967
380.938
380.909
380.881
380.852
380.824
380.795
380.766
380.738
380.709
380.68
380.652
380.623
380.594
380.566
380.537
380.508
380.48
380.451
380.422
380.394
380.365
380.336
380.308
380.279
380.25
380.221
380.193
380.164
380.135
380.106
380.078
380.049
380.02
379.992
379.963
379.934
379.905
379.876
379.848
379.819
379.79
379.761
379.733
379.704
379.675
379.646
379.617
379.589
379.56
379.531
379.502
379.473
379.444
379.416
379.387
379.358
379.329
379.3
379.271
379.242
379.214
379.185
379.156
379.127
379.098
379.069
379.04
379.011
378.983
378.954
378.925
378.896
378.867
378.838
378.809
378.78
378.751
378.722
378.693
378.664
378.635
378.606
378.577
378.549
378.52
378.491
378.462
378.433
378.404
378.375
378.346
378.317
378.288
378.259
378.23
378.201
378.172
378.143
378.113
378.084
378.055
378.026
377.997
377.968
377.939
377.91
377.881
377.852
377.823
377.794
377.765
377.736
377.707
377.678
377.648
377.619
377.59
377.561
377.532
377.503
377.474
377.445
377.415
377.386
377.357
377.328
377.299
377.27
377.241
377.211
377.182
377.153
377.124
377.095
377.065
377.036
377.007
376.978
376.949
376.919
376.89
376.861
376.832
376.803
376.773
376.744
376.715
376.686
376.656
376.627
376.598
376.569
376.539
376.51
376.481
376.452
376.422
376.393
376.364
376.334
376.305
376.276
376.246
376.217
376.188
376.158
376.129
376.1
376.07
376.041
376.012
375.982
375.953
375.924
375.894
375.865
375.836
375.806
375.777
375.747
375.718
375.689
375.659
375.63
375.6
375.571
375.542
375.512
375.483
375.453
375.424
375.394
375.365
375.336
375.306
375.277
375.247
375.218
375.188
375.159
375.129
375.1
375.07
375.041
375.011
374.982
374.952
374.923
374.893
374.864
374.834
374.805
374.775
374.746
374.716
374.686
374.657
374.627
374.598
374.568
374.539
374.509
374.48
374.45
374.42
374.391
374.361
374.332
374.302
374.272
374.243
374.213
374.183
374.154
374.124
374.095
374.065
374.035
374.006
373.976
373.946
373.917
373.887
373.857
373.828
373.798
373.768
373.738
373.709
373.679
373.649
373.62
373.59
373.56
373.53
373.501
373.471
373.441
373.412
373.382
373.352
373.322
373.293
373.263
373.233
373.203
373.173
373.144
373.114
373.084
373.054
373.024
372.995
372.965
372.935
372.905
372.875
372.846
372.816
372.786
372.756
372.726
372.696
372.666
372.637
372.607
372.577
372.547
372.517
372.487
372.457
372.427
372.397
372.368
372.338
372.308
372.278
372.248
372.218
372.188
372.158
372.128
372.098
372.068
372.038
372.008
371.978
371.948
371.918
371.888
371.858
371.828
371.798
371.768
371.738
371.708
371.678
371.648
371.618
371.588
371.558
371.528
371.498
371.468
371.438
371.408
371.378
371.348
371.318
371.288
371.258
371.228
371.198
371.167
371.137
371.107
371.077
371.047
371.017
370.987
370.957
370.927
370.896
370.866
370.836
370.806
370.776
370.746
370.715
370.685
370.655
370.625
370.595
370.565
370.534
370.504
370.474
370.444
370.414
370.383
370.353
370.323
370.293
370.262
370.232
370.202
370.172
370.141
370.111
370.081
370.051
370.02
369.99
369.96
369.93
369.899
369.869
369.839
369.808
369.778
369.748
369.717
369.687
369.657
369.626
369.596
369.566
369.535
369.505
369.475
369.444
369.414
369.384
369.353
369.323
369.292
369.262
369.232
369.201
369.171
369.14
369.11
369.079
369.049
369.019
368.988
368.958
368.927
368.897
368.866
368.836
368.805
368.775
368.745
368.714
368.684
368.653
368.623
368.592
368.562
368.531
368.501
368.47
368.44
368.409
368.378
368.348
368.317
368.287
368.256
368.226
368.195
368.165
368.134
368.103
368.073
368.042
368.012
367.981
367.95
367.92
367.889
367.859
367.828
367.797
367.767
367.736
367.705
367.675
367.644
367.614
367.583
367.552
367.522
367.491
367.46
367.429
367.399
367.368
367.337
367.307
367.276
367.245
367.215
367.184
367.153
367.122
367.092
367.061
367.03
366.999
366.969
366.938
366.907
366.876
366.846
366.815
366.784
366.753
366.722
366.692
366.661
366.63
366.599
366.568
366.537
366.507
366.476
366.445
366.414
366.383
366.352
366.322
366.291
366.26
366.229
366.198
366.167
366.136
366.105
366.074
366.044
366.013
365.982
365.951
365.92
365.889
365.858
365.827
365.796
365.765
365.734
365.703
365.672
365.641
365.61
365.579
365.548
365.517
365.486
365.455
365.424
365.393
365.362
365.331
365.3
365.269
365.238
365.207
365.176
365.145
365.114
365.083
365.052
365.021
364.99
364.959
364.928
364.896
364.865
364.834
364.803
364.772
364.741
364.71
364.679
364.647
364.616
364.585
364.554
364.523
364.492
364.461
364.429
364.398
364.367
364.336
364.305
364.273
364.242
364.211
364.18
364.149
364.117
364.086
364.055
364.024
363.992
363.961
363.93
363.899
363.867
363.836
363.805
363.774
363.742
363.711
363.68
363.648
363.617
363.586
363.555
363.523
363.492
363.461
363.429
363.398
363.367
363.335
363.304
363.273
363.241
363.21
363.178
363.147
363.116
363.084
363.053
363.021
362.99
362.959
362.927
362.896
362.864
362.833
362.802
362.77
362.739
362.707
362.676
362.644
362.613
362.581
362.55
362.518
362.487
362.455
362.424
362.392
362.361
362.329
362.298
362.266
362.235
362.203
362.172
362.14
362.109
362.077
362.046
362.014
361.982
361.951
361.919
361.888
361.856
361.824
361.793
361.761
361.73
361.698
361.666
361.635
361.603
361.571
361.54
361.508
361.477
361.445
361.413
361.382
361.35
361.318
361.286
361.255
361.223
361.191
361.16
361.128
361.096
361.065
361.033
361.001
360.969
360.938
360.906
360.874
360.842
360.811
360.779
360.747
360.715
360.683
360.652
360.62
360.588
360.556
360.524
360.493
360.461
360.429
360.397
360.365
360.333
360.302
360.27
360.238
360.206
360.174
360.142
360.11
360.078
360.047
360.015
359.983
359.951
359.919
359.887
359.855
359.823
359.791
359.759
359.727
359.695
359.663
359.631
359.6
359.568
359.536
359.504
359.472
359.44