/*--------------------------------*- C++ -*----------------------------------*\
| =========                 |                                                 |
| \\      /  F ield         | OpenFOAM: The Open Source CFD Toolbox           |
|  \\    /   O peration     | Version:  2.3.0                                 |
|   \\  /    A nd           | Web:      www.OpenFOAM.org                      |
|    \\/     M anipulation  |                                                 |
\*---------------------------------------------------------------------------*/
FoamFile
{
    version     2.0;
    format      ascii;
    class       volScalarField;
    location    "1e-06";
    object      T;
}
// * * * * * * * * * * * * * * * * * * * * * * * * * * * * * * * * * * * * * //

dimensions      [0 0 0 1 0 0 0];

internalField   nonuniform List<scalar> 
10000
(
500.01
500.02
500.03
500.04
500.05
500.06
500.07
500.08
500.09
500.1
500.11
500.12
500.13
500.14
500.15
500.16
500.17
500.18
500.19
500.2
500.21
500.22
500.23
500.24
500.25
500.26
500.27
500.28
500.29
500.3
500.31
500.32
500.33
500.34
500.35
500.36
500.37
500.38
500.39
500.4
500.41
500.42
500.43
500.44
500.45
500.46
500.47
500.48
500.49
500.5
500.51
500.52
500.53
500.54
500.55
500.56
500.57
500.58
500.59
500.6
500.61
500.62
500.63
500.64
500.65
500.66
500.67
500.68
500.69
500.7
500.71
500.72
500.73
500.74
500.75
500.76
500.77
500.78
500.79
500.8
500.81
500.82
500.83
500.84
500.85
500.86
500.87
500.88
500.89
500.9
500.91
500.92
500.93
500.94
500.95
500.96
500.97
500.98
500.99
501
501.01
501.02
501.03
501.04
501.05
501.06
501.07
501.08
501.09
501.1
501.11
501.12
501.13
501.14
501.15
501.16
501.17
501.18
501.19
501.2
501.21
501.22
501.23
501.24
501.25
501.26
501.27
501.28
501.29
501.3
501.31
501.32
501.33
501.34
501.35
501.36
501.37
501.38
501.39
501.4
501.41
501.42
501.43
501.44
501.45
501.46
501.47
501.48
501.49
501.5
501.51
501.52
501.53
501.54
501.55
501.56
501.57
501.58
501.59
501.6
501.61
501.62
501.63
501.64
501.65
501.66
501.67
501.68
501.69
501.7
501.71
501.72
501.73
501.74
501.75
501.76
501.77
501.78
501.79
501.8
501.81
501.82
501.83
501.84
501.85
501.86
501.87
501.88
501.89
501.9
501.91
501.92
501.93
501.94
501.95
501.96
501.97
501.98
501.99
502
502.01
502.02
502.03
502.04
502.05
502.06
502.07
502.08
502.09
502.1
502.11
502.12
502.13
502.14
502.15
502.16
502.17
502.18
502.19
502.2
502.21
502.22
502.23
502.24
502.25
502.26
502.27
502.28
502.29
502.3
502.31
502.32
502.33
502.34
502.35
502.36
502.37
502.38
502.39
502.4
502.41
502.42
502.43
502.44
502.45
502.46
502.47
502.48
502.49
502.5
502.51
502.52
502.53
502.54
502.55
502.56
502.57
502.58
502.59
502.6
502.61
502.62
502.63
502.64
502.65
502.66
502.67
502.68
502.69
502.7
502.71
502.72
502.73
502.74
502.75
502.76
502.77
502.78
502.79
502.8
502.81
502.82
502.83
502.84
502.85
502.86
502.87
502.88
502.89
502.9
502.91
502.92
502.93
502.94
502.95
502.96
502.97
502.98
502.99
503
503.01
503.02
503.03
503.04
503.05
503.06
503.07
503.08
503.09
503.1
503.11
503.12
503.13
503.14
503.15
503.16
503.17
503.18
503.19
503.2
503.21
503.22
503.23
503.24
503.25
503.26
503.27
503.28
503.29
503.3
503.31
503.32
503.33
503.34
503.35
503.36
503.37
503.38
503.39
503.4
503.41
503.42
503.43
503.44
503.45
503.46
503.47
503.48
503.49
503.5
503.51
503.52
503.53
503.54
503.55
503.56
503.57
503.58
503.59
503.6
503.61
503.62
503.63
503.64
503.65
503.66
503.67
503.68
503.69
503.7
503.71
503.72
503.73
503.74
503.75
503.76
503.77
503.78
503.79
503.8
503.81
503.82
503.83
503.84
503.85
503.86
503.87
503.88
503.89
503.9
503.91
503.92
503.93
503.94
503.95
503.96
503.97
503.98
503.99
504
504.01
504.02
504.03
504.04
504.05
504.06
504.07
504.08
504.09
504.1
504.11
504.12
504.13
504.14
504.15
504.16
504.17
504.18
504.19
504.2
504.21
504.22
504.23
504.24
504.25
504.26
504.27
504.28
504.29
504.3
504.31
504.32
504.33
504.34
504.35
504.36
504.37
504.38
504.39
504.4
504.41
504.42
504.43
504.44
504.45
504.46
504.47
504.48
504.49
504.5
504.51
504.52
504.53
504.54
504.55
504.56
504.57
504.58
504.59
504.6
504.61
504.62
504.63
504.64
504.65
504.66
504.67
504.68
504.69
504.7
504.71
504.72
504.73
504.74
504.75
504.76
504.77
504.78
504.79
504.8
504.81
504.82
504.83
504.84
504.85
504.86
504.87
504.88
504.89
504.9
504.91
504.92
504.93
504.94
504.95
504.96
504.97
504.98
504.99
505
505.01
505.02
505.03
505.04
505.05
505.06
505.07
505.08
505.09
505.1
505.11
505.12
505.13
505.14
505.15
505.16
505.17
505.18
505.19
505.2
505.21
505.22
505.23
505.24
505.25
505.26
505.27
505.28
505.29
505.3
505.31
505.32
505.33
505.34
505.35
505.36
505.37
505.38
505.39
505.4
505.41
505.42
505.43
505.44
505.45
505.46
505.47
505.48
505.49
505.5
505.51
505.52
505.53
505.54
505.55
505.56
505.57
505.58
505.59
505.6
505.61
505.62
505.63
505.64
505.65
505.66
505.67
505.68
505.69
505.7
505.71
505.72
505.73
505.74
505.75
505.76
505.77
505.78
505.79
505.8
505.81
505.82
505.83
505.84
505.85
505.86
505.87
505.88
505.89
505.9
505.91
505.92
505.93
505.94
505.95
505.96
505.97
505.98
505.99
506
506.01
506.02
506.03
506.04
506.05
506.06
506.07
506.08
506.09
506.1
506.11
506.12
506.13
506.14
506.15
506.16
506.17
506.18
506.19
506.2
506.21
506.22
506.23
506.24
506.25
506.26
506.27
506.28
506.29
506.3
506.31
506.32
506.33
506.34
506.35
506.36
506.37
506.38
506.39
506.4
506.41
506.42
506.43
506.44
506.45
506.46
506.47
506.48
506.49
506.5
506.51
506.52
506.53
506.54
506.55
506.56
506.57
506.58
506.59
506.6
506.61
506.62
506.63
506.64
506.65
506.66
506.67
506.68
506.69
506.7
506.71
506.72
506.73
506.74
506.75
506.76
506.77
506.78
506.79
506.8
506.81
506.82
506.83
506.84
506.85
506.86
506.87
506.88
506.89
506.9
506.91
506.92
506.93
506.94
506.95
506.96
506.97
506.98
506.99
507
507.01
507.02
507.03
507.04
507.05
507.06
507.07
507.08
507.09
507.1
507.11
507.12
507.13
507.14
507.15
507.16
507.17
507.18
507.19
507.2
507.21
507.22
507.23
507.24
507.25
507.26
507.27
507.28
507.29
507.3
507.31
507.32
507.33
507.34
507.35
507.36
507.37
507.38
507.39
507.4
507.41
507.42
507.43
507.44
507.45
507.46
507.47
507.48
507.49
507.5
507.51
507.52
507.53
507.54
507.55
507.56
507.57
507.58
507.59
507.6
507.61
507.62
507.63
507.64
507.65
507.66
507.67
507.68
507.69
507.7
507.71
507.72
507.73
507.74
507.75
507.76
507.77
507.78
507.79
507.8
507.81
507.82
507.83
507.84
507.85
507.86
507.87
507.88
507.89
507.9
507.91
507.92
507.93
507.94
507.95
507.96
507.97
507.98
507.99
508
508.01
508.02
508.03
508.04
508.05
508.06
508.07
508.08
508.09
508.1
508.11
508.12
508.13
508.14
508.15
508.16
508.17
508.18
508.19
508.2
508.21
508.22
508.23
508.24
508.25
508.26
508.27
508.28
508.29
508.3
508.31
508.32
508.33
508.34
508.35
508.36
508.37
508.38
508.39
508.4
508.41
508.42
508.43
508.44
508.45
508.46
508.47
508.48
508.49
508.5
508.51
508.52
508.53
508.54
508.55
508.56
508.57
508.58
508.59
508.6
508.61
508.62
508.63
508.64
508.65
508.66
508.67
508.68
508.69
508.7
508.71
508.72
508.73
508.74
508.75
508.76
508.77
508.78
508.79
508.8
508.81
508.82
508.83
508.84
508.85
508.86
508.87
508.88
508.89
508.9
508.91
508.92
508.93
508.94
508.95
508.96
508.97
508.98
508.99
509
509.01
509.02
509.03
509.04
509.05
509.06
509.07
509.08
509.09
509.1
509.11
509.12
509.13
509.14
509.15
509.16
509.17
509.18
509.19
509.2
509.21
509.22
509.23
509.24
509.25
509.26
509.27
509.28
509.29
509.3
509.31
509.32
509.33
509.34
509.35
509.36
509.37
509.38
509.39
509.4
509.41
509.42
509.43
509.44
509.45
509.46
509.47
509.48
509.49
509.5
509.51
509.52
509.53
509.54
509.55
509.56
509.57
509.58
509.59
509.6
509.61
509.62
509.63
509.64
509.65
509.66
509.67
509.68
509.69
509.7
509.71
509.72
509.73
509.74
509.75
509.76
509.77
509.78
509.79
509.8
509.81
509.82
509.83
509.84
509.85
509.86
509.87
509.88
509.89
509.9
509.91
509.92
509.93
509.94
509.95
509.96
509.97
509.98
509.99
510
510.01
510.02
510.03
510.04
510.05
510.06
510.07
510.08
510.09
510.1
510.11
510.12
510.13
510.14
510.15
510.16
510.17
510.18
510.19
510.2
510.21
510.22
510.23
510.24
510.25
510.26
510.27
510.28
510.29
510.3
510.31
510.32
510.33
510.34
510.35
510.36
510.37
510.38
510.39
510.4
510.41
510.42
510.43
510.44
510.45
510.46
510.47
510.48
510.49
510.5
510.51
510.52
510.53
510.54
510.55
510.56
510.57
510.58
510.59
510.6
510.61
510.62
510.63
510.64
510.65
510.66
510.67
510.68
510.69
510.7
510.71
510.72
510.73
510.74
510.75
510.76
510.77
510.78
510.79
510.8
510.81
510.82
510.83
510.84
510.85
510.86
510.87
510.88
510.89
510.9
510.91
510.92
510.93
510.94
510.95
510.96
510.97
510.98
510.99
511
511.01
511.02
511.03
511.04
511.05
511.06
511.07
511.08
511.09
511.1
511.11
511.12
511.13
511.14
511.15
511.16
511.17
511.18
511.19
511.2
511.21
511.22
511.23
511.24
511.25
511.26
511.27
511.28
511.29
511.3
511.31
511.32
511.33
511.34
511.35
511.36
511.37
511.38
511.39
511.4
511.41
511.42
511.43
511.44
511.45
511.46
511.47
511.48
511.49
511.5
511.51
511.52
511.53
511.54
511.55
511.56
511.57
511.58
511.59
511.6
511.61
511.62
511.63
511.64
511.65
511.66
511.67
511.68
511.69
511.7
511.71
511.72
511.73
511.74
511.75
511.76
511.77
511.78
511.79
511.8
511.81
511.82
511.83
511.84
511.85
511.86
511.87
511.88
511.89
511.9
511.91
511.92
511.93
511.94
511.95
511.96
511.97
511.98
511.99
512
512.01
512.02
512.03
512.04
512.05
512.06
512.07
512.08
512.09
512.1
512.11
512.12
512.13
512.14
512.15
512.16
512.17
512.18
512.19
512.2
512.21
512.22
512.23
512.24
512.25
512.26
512.27
512.28
512.29
512.3
512.31
512.32
512.33
512.34
512.35
512.36
512.37
512.38
512.39
512.4
512.41
512.42
512.43
512.44
512.45
512.46
512.47
512.48
512.49
512.5
512.51
512.52
512.53
512.54
512.55
512.56
512.57
512.58
512.59
512.6
512.61
512.62
512.63
512.64
512.65
512.66
512.67
512.68
512.69
512.7
512.71
512.72
512.73
512.74
512.75
512.76
512.77
512.78
512.79
512.8
512.81
512.82
512.83
512.84
512.85
512.86
512.87
512.88
512.89
512.9
512.91
512.92
512.93
512.94
512.95
512.96
512.97
512.98
512.99
513
513.01
513.02
513.03
513.04
513.05
513.06
513.07
513.08
513.09
513.1
513.11
513.12
513.13
513.14
513.15
513.16
513.17
513.18
513.19
513.2
513.21
513.22
513.23
513.24
513.25
513.26
513.27
513.28
513.29
513.3
513.31
513.32
513.33
513.34
513.35
513.36
513.37
513.38
513.39
513.4
513.41
513.42
513.43
513.44
513.45
513.46
513.47
513.48
513.49
513.5
513.51
513.52
513.53
513.54
513.55
513.56
513.57
513.58
513.59
513.6
513.61
513.62
513.63
513.64
513.65
513.66
513.67
513.68
513.69
513.7
513.71
513.72
513.73
513.74
513.75
513.76
513.77
513.78
513.79
513.8
513.81
513.82
513.83
513.84
513.85
513.86
513.87
513.88
513.89
513.9
513.91
513.92
513.93
513.94
513.95
513.96
513.97
513.98
513.99
514
514.01
514.02
514.03
514.04
514.05
514.06
514.07
514.08
514.09
514.1
514.11
514.12
514.13
514.14
514.15
514.16
514.17
514.18
514.19
514.2
514.21
514.22
514.23
514.24
514.25
514.26
514.27
514.28
514.29
514.3
514.31
514.32
514.33
514.34
514.35
514.36
514.37
514.38
514.39
514.4
514.41
514.42
514.43
514.44
514.45
514.46
514.47
514.48
514.49
514.5
514.51
514.52
514.53
514.54
514.55
514.56
514.57
514.58
514.59
514.6
514.61
514.62
514.63
514.64
514.65
514.66
514.67
514.68
514.69
514.7
514.71
514.72
514.73
514.74
514.75
514.76
514.77
514.78
514.79
514.8
514.81
514.82
514.83
514.84
514.85
514.86
514.87
514.88
514.89
514.9
514.91
514.92
514.93
514.94
514.95
514.96
514.97
514.98
514.99
515
515.01
515.02
515.03
515.04
515.05
515.06
515.07
515.08
515.09
515.1
515.11
515.12
515.13
515.14
515.15
515.16
515.17
515.18
515.19
515.2
515.21
515.22
515.23
515.24
515.25
515.26
515.27
515.28
515.29
515.3
515.31
515.32
515.33
515.34
515.35
515.36
515.37
515.38
515.39
515.4
515.41
515.42
515.43
515.44
515.45
515.46
515.47
515.48
515.49
515.5
515.51
515.52
515.53
515.54
515.55
515.56
515.57
515.58
515.59
515.6
515.61
515.62
515.63
515.64
515.65
515.66
515.67
515.68
515.69
515.7
515.71
515.72
515.73
515.74
515.75
515.76
515.77
515.78
515.79
515.8
515.81
515.82
515.83
515.84
515.85
515.86
515.87
515.88
515.89
515.9
515.91
515.92
515.93
515.94
515.95
515.96
515.97
515.98
515.99
516
516.01
516.02
516.03
516.04
516.05
516.06
516.07
516.08
516.09
516.1
516.11
516.12
516.13
516.14
516.15
516.16
516.17
516.18
516.19
516.2
516.21
516.22
516.23
516.24
516.25
516.26
516.27
516.28
516.29
516.3
516.31
516.32
516.33
516.34
516.35
516.36
516.37
516.38
516.39
516.4
516.41
516.42
516.43
516.44
516.45
516.46
516.47
516.48
516.49
516.5
516.51
516.52
516.53
516.54
516.55
516.56
516.57
516.58
516.59
516.6
516.61
516.62
516.63
516.64
516.65
516.66
516.67
516.68
516.69
516.7
516.71
516.72
516.73
516.74
516.75
516.76
516.77
516.78
516.79
516.8
516.81
516.82
516.83
516.84
516.85
516.86
516.87
516.88
516.89
516.9
516.91
516.92
516.93
516.94
516.95
516.96
516.97
516.98
516.99
517
517.01
517.02
517.03
517.04
517.05
517.06
517.07
517.08
517.09
517.1
517.11
517.12
517.13
517.14
517.15
517.16
517.17
517.18
517.19
517.2
517.21
517.22
517.23
517.24
517.25
517.26
517.27
517.28
517.29
517.3
517.31
517.32
517.33
517.34
517.35
517.36
517.37
517.38
517.39
517.4
517.41
517.42
517.43
517.44
517.45
517.46
517.47
517.48
517.49
517.5
517.51
517.52
517.53
517.54
517.55
517.56
517.57
517.58
517.59
517.6
517.61
517.62
517.63
517.64
517.65
517.66
517.67
517.68
517.69
517.7
517.71
517.72
517.73
517.74
517.75
517.76
517.77
517.78
517.79
517.8
517.81
517.82
517.83
517.84
517.85
517.86
517.87
517.88
517.89
517.9
517.91
517.92
517.93
517.94
517.95
517.96
517.97
517.98
517.99
518
518.01
518.02
518.03
518.04
518.05
518.06
518.07
518.08
518.09
518.1
518.11
518.12
518.13
518.14
518.15
518.16
518.17
518.18
518.19
518.2
518.21
518.22
518.23
518.24
518.25
518.26
518.27
518.28
518.29
518.3
518.31
518.32
518.33
518.34
518.35
518.36
518.37
518.38
518.39
518.4
518.41
518.42
518.43
518.44
518.45
518.46
518.47
518.48
518.49
518.5
518.51
518.52
518.53
518.54
518.55
518.56
518.57
518.58
518.59
518.6
518.61
518.62
518.63
518.64
518.65
518.66
518.67
518.68
518.69
518.7
518.71
518.72
518.73
518.74
518.75
518.76
518.77
518.78
518.79
518.8
518.81
518.82
518.83
518.84
518.85
518.86
518.87
518.88
518.89
518.9
518.91
518.92
518.93
518.94
518.95
518.96
518.97
518.98
518.99
519
519.01
519.02
519.03
519.04
519.05
519.06
519.07
519.08
519.09
519.1
519.11
519.12
519.13
519.14
519.15
519.16
519.17
519.18
519.19
519.2
519.21
519.22
519.23
519.24
519.25
519.26
519.27
519.28
519.29
519.3
519.31
519.32
519.33
519.34
519.35
519.36
519.37
519.38
519.39
519.4
519.41
519.42
519.43
519.44
519.45
519.46
519.47
519.48
519.49
519.5
519.51
519.52
519.53
519.54
519.55
519.56
519.57
519.58
519.59
519.6
519.61
519.62
519.63
519.64
519.65
519.66
519.67
519.68
519.69
519.7
519.71
519.72
519.73
519.74
519.75
519.76
519.77
519.78
519.79
519.8
519.81
519.82
519.83
519.84
519.85
519.86
519.87
519.88
519.89
519.9
519.91
519.92
519.93
519.94
519.95
519.96
519.97
519.98
519.99
520
520.01
520.02
520.03
520.04
520.05
520.06
520.07
520.08
520.09
520.1
520.11
520.12
520.13
520.14
520.15
520.16
520.17
520.18
520.19
520.2
520.21
520.22
520.23
520.24
520.25
520.26
520.27
520.28
520.29
520.3
520.31
520.32
520.33
520.34
520.35
520.36
520.37
520.38
520.39
520.4
520.41
520.42
520.43
520.44
520.45
520.46
520.47
520.48
520.49
520.5
520.51
520.52
520.53
520.54
520.55
520.56
520.57
520.58
520.59
520.6
520.61
520.62
520.63
520.64
520.65
520.66
520.67
520.68
520.69
520.7
520.71
520.72
520.73
520.74
520.75
520.76
520.77
520.78
520.79
520.8
520.81
520.82
520.83
520.84
520.85
520.86
520.87
520.88
520.89
520.9
520.91
520.92
520.93
520.94
520.95
520.96
520.97
520.98
520.99
521
521.01
521.02
521.03
521.04
521.05
521.06
521.07
521.08
521.09
521.1
521.11
521.12
521.13
521.14
521.15
521.16
521.17
521.18
521.19
521.2
521.21
521.22
521.23
521.24
521.25
521.26
521.27
521.28
521.29
521.3
521.31
521.32
521.33
521.34
521.35
521.36
521.37
521.38
521.39
521.4
521.41
521.42
521.43
521.44
521.45
521.46
521.47
521.48
521.49
521.5
521.51
521.52
521.53
521.54
521.55
521.56
521.57
521.58
521.59
521.6
521.61
521.62
521.63
521.64
521.65
521.66
521.67
521.68
521.69
521.7
521.71
521.72
521.73
521.74
521.75
521.76
521.77
521.78
521.79
521.8
521.81
521.82
521.83
521.84
521.85
521.86
521.87
521.88
521.89
521.9
521.91
521.92
521.93
521.94
521.95
521.96
521.97
521.98
521.99
522
522.01
522.02
522.03
522.04
522.05
522.06
522.07
522.08
522.09
522.1
522.11
522.12
522.13
522.14
522.15
522.16
522.17
522.18
522.19
522.2
522.21
522.22
522.23
522.24
522.25
522.26
522.27
522.28
522.29
522.3
522.31
522.32
522.33
522.34
522.35
522.36
522.37
522.38
522.39
522.4
522.41
522.42
522.43
522.44
522.45
522.46
522.47
522.48
522.49
522.5
522.51
522.52
522.53
522.54
522.55
522.56
522.57
522.58
522.59
522.6
522.61
522.62
522.63
522.64
522.65
522.66
522.67
522.68
522.69
522.7
522.71
522.72
522.73
522.74
522.75
522.76
522.77
522.78
522.79
522.8
522.81
522.82
522.83
522.84
522.85
522.86
522.87
522.88
522.89
522.9
522.91
522.92
522.93
522.94
522.95
522.96
522.97
522.98
522.99
523
523.01
523.02
523.03
523.04
523.05
523.06
523.07
523.08
523.09
523.1
523.11
523.12
523.13
523.14
523.15
523.16
523.17
523.18
523.19
523.2
523.21
523.22
523.23
523.24
523.25
523.26
523.27
523.28
523.29
523.3
523.31
523.32
523.33
523.34
523.35
523.36
523.37
523.38
523.39
523.4
523.41
523.42
523.43
523.44
523.45
523.46
523.47
523.48
523.49
523.5
523.51
523.52
523.53
523.54
523.55
523.56
523.57
523.58
523.59
523.6
523.61
523.62
523.63
523.64
523.65
523.66
523.67
523.68
523.69
523.7
523.71
523.72
523.73
523.74
523.75
523.76
523.77
523.78
523.79
523.8
523.81
523.82
523.83
523.84
523.85
523.86
523.87
523.88
523.89
523.9
523.91
523.92
523.93
523.94
523.95
523.96
523.97
523.98
523.99
524
524.01
524.02
524.03
524.04
524.05
524.06
524.07
524.08
524.09
524.1
524.11
524.12
524.13
524.14
524.15
524.16
524.17
524.18
524.19
524.2
524.21
524.22
524.23
524.24
524.25
524.26
524.27
524.28
524.29
524.3
524.31
524.32
524.33
524.34
524.35
524.36
524.37
524.38
524.39
524.4
524.41
524.42
524.43
524.44
524.45
524.46
524.47
524.48
524.49
524.5
524.51
524.52
524.53
524.54
524.55
524.56
524.57
524.58
524.59
524.6
524.61
524.62
524.63
524.64
524.65
524.66
524.67
524.68
524.69
524.7
524.71
524.72
524.73
524.74
524.75
524.76
524.77
524.78
524.79
524.8
524.81
524.82
524.83
524.84
524.85
524.86
524.87
524.88
524.89
524.9
524.91
524.92
524.93
524.94
524.95
524.96
524.97
524.98
524.99
525
525.01
525.02
525.03
525.04
525.05
525.06
525.07
525.08
525.09
525.1
525.11
525.12
525.13
525.14
525.15
525.16
525.17
525.18
525.19
525.2
525.21
525.22
525.23
525.24
525.25
525.26
525.27
525.28
525.29
525.3
525.31
525.32
525.33
525.34
525.35
525.36
525.37
525.38
525.39
525.4
525.41
525.42
525.43
525.44
525.45
525.46
525.47
525.48
525.49
525.5
525.51
525.52
525.53
525.54
525.55
525.56
525.57
525.58
525.59
525.6
525.61
525.62
525.63
525.64
525.65
525.66
525.67
525.68
525.69
525.7
525.71
525.72
525.73
525.74
525.75
525.76
525.77
525.78
525.79
525.8
525.81
525.82
525.83
525.84
525.85
525.86
525.87
525.88
525.89
525.9
525.91
525.92
525.93
525.94
525.95
525.96
525.97
525.98
525.99
526
526.01
526.02
526.03
526.04
526.05
526.06
526.07
526.08
526.09
526.1
526.11
526.12
526.13
526.14
526.15
526.16
526.17
526.18
526.19
526.2
526.21
526.22
526.23
526.24
526.25
526.26
526.27
526.28
526.29
526.3
526.31
526.32
526.33
526.34
526.35
526.36
526.37
526.38
526.39
526.4
526.41
526.42
526.43
526.44
526.45
526.46
526.47
526.48
526.49
526.5
526.51
526.52
526.53
526.54
526.55
526.56
526.57
526.58
526.59
526.6
526.61
526.62
526.63
526.64
526.65
526.66
526.67
526.68
526.69
526.7
526.71
526.72
526.73
526.74
526.75
526.76
526.77
526.78
526.79
526.8
526.81
526.82
526.83
526.84
526.85
526.86
526.87
526.88
526.89
526.9
526.91
526.92
526.93
526.94
526.95
526.96
526.97
526.98
526.99
527
527.01
527.02
527.03
527.04
527.05
527.06
527.07
527.08
527.09
527.1
527.11
527.12
527.13
527.14
527.15
527.16
527.17
527.18
527.19
527.2
527.21
527.22
527.23
527.24
527.25
527.26
527.27
527.28
527.29
527.3
527.31
527.32
527.33
527.34
527.35
527.36
527.37
527.38
527.39
527.4
527.41
527.42
527.43
527.44
527.45
527.46
527.47
527.48
527.49
527.5
527.51
527.52
527.53
527.54
527.55
527.56
527.57
527.58
527.59
527.6
527.61
527.62
527.63
527.64
527.65
527.66
527.67
527.68
527.69
527.7
527.71
527.72
527.73
527.74
527.75
527.76
527.77
527.78
527.79
527.8
527.81
527.82
527.83
527.84
527.85
527.86
527.87
527.88
527.89
527.9
527.91
527.92
527.93
527.94
527.95
527.96
527.97
527.98
527.99
528
528.01
528.02
528.03
528.04
528.05
528.06
528.07
528.08
528.09
528.1
528.11
528.12
528.13
528.14
528.15
528.16
528.17
528.18
528.19
528.2
528.21
528.22
528.23
528.24
528.25
528.26
528.27
528.28
528.29
528.3
528.31
528.32
528.33
528.34
528.35
528.36
528.37
528.38
528.39
528.4
528.41
528.42
528.43
528.44
528.45
528.46
528.47
528.48
528.49
528.5
528.51
528.52
528.53
528.54
528.55
528.56
528.57
528.58
528.59
528.6
528.61
528.62
528.63
528.64
528.65
528.66
528.67
528.68
528.69
528.7
528.71
528.72
528.73
528.74
528.75
528.76
528.77
528.78
528.79
528.8
528.81
528.82
528.83
528.84
528.85
528.86
528.87
528.88
528.89
528.9
528.91
528.92
528.93
528.94
528.95
528.96
528.97
528.98
528.99
529
529.01
529.02
529.03
529.04
529.05
529.06
529.07
529.08
529.09
529.1
529.11
529.12
529.13
529.14
529.15
529.16
529.17
529.18
529.19
529.2
529.21
529.22
529.23
529.24
529.25
529.26
529.27
529.28
529.29
529.3
529.31
529.32
529.33
529.34
529.35
529.36
529.37
529.38
529.39
529.4
529.41
529.42
529.43
529.44
529.45
529.46
529.47
529.48
529.49
529.5
529.51
529.52
529.53
529.54
529.55
529.56
529.57
529.58
529.59
529.6
529.61
529.62
529.63
529.64
529.65
529.66
529.67
529.68
529.69
529.7
529.71
529.72
529.73
529.74
529.75
529.76
529.77
529.78
529.79
529.8
529.81
529.82
529.83
529.84
529.85
529.86
529.87
529.88
529.89
529.9
529.91
529.92
529.93
529.94
529.95
529.96
529.97
529.98
529.99
530
530.01
530.02
530.03
530.04
530.05
530.06
530.07
530.08
530.09
530.1
530.11
530.12
530.13
530.14
530.15
530.16
530.17
530.18
530.19
530.2
530.21
530.22
530.23
530.24
530.25
530.26
530.27
530.28
530.29
530.3
530.31
530.32
530.33
530.34
530.35
530.36
530.37
530.38
530.39
530.4
530.41
530.42
530.43
530.44
530.45
530.46
530.47
530.48
530.49
530.5
530.51
530.52
530.53
530.54
530.55
530.56
530.57
530.58
530.59
530.6
530.61
530.62
530.63
530.64
530.65
530.66
530.67
530.68
530.69
530.7
530.71
530.72
530.73
530.74
530.75
530.76
530.77
530.78
530.79
530.8
530.81
530.82
530.83
530.84
530.85
530.86
530.87
530.88
530.89
530.9
530.91
530.92
530.93
530.94
530.95
530.96
530.97
530.98
530.99
531
531.01
531.02
531.03
531.04
531.05
531.06
531.07
531.08
531.09
531.1
531.11
531.12
531.13
531.14
531.15
531.16
531.17
531.18
531.19
531.2
531.21
531.22
531.23
531.24
531.25
531.26
531.27
531.28
531.29
531.3
531.31
531.32
531.33
531.34
531.35
531.36
531.37
531.38
531.39
531.4
531.41
531.42
531.43
531.44
531.45
531.46
531.47
531.48
531.49
531.5
531.51
531.52
531.53
531.54
531.55
531.56
531.57
531.58
531.59
531.6
531.61
531.62
531.63
531.64
531.65
531.66
531.67
531.68
531.69
531.7
531.71
531.72
531.73
531.74
531.75
531.76
531.77
531.78
531.79
531.8
531.81
531.82
531.83
531.84
531.85
531.86
531.87
531.88
531.89
531.9
531.91
531.92
531.93
531.94
531.95
531.96
531.97
531.98
531.99
532
532.01
532.02
532.03
532.04
532.05
532.06
532.07
532.08
532.09
532.1
532.11
532.12
532.13
532.14
532.15
532.16
532.17
532.18
532.19
532.2
532.21
532.22
532.23
532.24
532.25
532.26
532.27
532.28
532.29
532.3
532.31
532.32
532.33
532.34
532.35
532.36
532.37
532.38
532.39
532.4
532.41
532.42
532.43
532.44
532.45
532.46
532.47
532.48
532.49
532.5
532.51
532.52
532.53
532.54
532.55
532.56
532.57
532.58
532.59
532.6
532.61
532.62
532.63
532.64
532.65
532.66
532.67
532.68
532.69
532.7
532.71
532.72
532.73
532.74
532.75
532.76
532.77
532.78
532.79
532.8
532.81
532.82
532.83
532.84
532.85
532.86
532.87
532.88
532.89
532.9
532.91
532.92
532.93
532.94
532.95
532.96
532.97
532.98
532.99
533
533.01
533.02
533.03
533.04
533.05
533.06
533.07
533.08
533.09
533.1
533.11
533.12
533.13
533.14
533.15
533.16
533.17
533.18
533.19
533.2
533.21
533.22
533.23
533.24
533.25
533.26
533.27
533.28
533.29
533.3
533.31
533.32
533.33
533.34
533.35
533.36
533.37
533.38
533.39
533.4
533.41
533.42
533.43
533.44
533.45
533.46
533.47
533.48
533.49
533.5
533.51
533.52
533.53
533.54
533.55
533.56
533.57
533.58
533.59
533.6
533.61
533.62
533.63
533.64
533.65
533.66
533.67
533.68
533.69
533.7
533.71
533.72
533.73
533.74
533.75
533.76
533.77
533.78
533.79
533.8
533.81
533.82
533.83
533.84
533.85
533.86
533.87
533.88
533.89
533.9
533.91
533.92
533.93
533.94
533.95
533.96
533.97
533.98
533.99
534
534.01
534.02
534.03
534.04
534.05
534.06
534.07
534.08
534.09
534.1
534.11
534.12
534.13
534.14
534.15
534.16
534.17
534.18
534.19
534.2
534.21
534.22
534.23
534.24
534.25
534.26
534.27
534.28
534.29
534.3
534.31
534.32
534.33
534.34
534.35
534.36
534.37
534.38
534.39
534.4
534.41
534.42
534.43
534.44
534.45
534.46
534.47
534.48
534.49
534.5
534.51
534.52
534.53
534.54
534.55
534.56
534.57
534.58
534.59
534.6
534.61
534.62
534.63
534.64
534.65
534.66
534.67
534.68
534.69
534.7
534.71
534.72
534.73
534.74
534.75
534.76
534.77
534.78
534.79
534.8
534.81
534.82
534.83
534.84
534.85
534.86
534.87
534.88
534.89
534.9
534.91
534.92
534.93
534.94
534.95
534.96
534.97
534.98
534.99
535
535.01
535.02
535.03
535.04
535.05
535.06
535.07
535.08
535.09
535.1
535.11
535.12
535.13
535.14
535.15
535.16
535.17
535.18
535.19
535.2
535.21
535.22
535.23
535.24
535.25
535.26
535.27
535.28
535.29
535.3
535.31
535.32
535.33
535.34
535.35
535.36
535.37
535.38
535.39
535.4
535.41
535.42
535.43
535.44
535.45
535.46
535.47
535.48
535.49
535.5
535.51
535.52
535.53
535.54
535.55
535.56
535.57
535.58
535.59
535.6
535.61
535.62
535.63
535.64
535.65
535.66
535.67
535.68
535.69
535.7
535.71
535.72
535.73
535.74
535.75
535.76
535.77
535.78
535.79
535.8
535.81
535.82
535.83
535.84
535.85
535.86
535.87
535.88
535.89
535.9
535.91
535.92
535.93
535.94
535.95
535.96
535.97
535.98
535.99
536
536.01
536.02
536.03
536.04
536.05
536.06
536.07
536.08
536.09
536.1
536.11
536.12
536.13
536.14
536.15
536.16
536.17
536.18
536.19
536.2
536.21
536.22
536.23
536.24
536.25
536.26
536.27
536.28
536.29
536.3
536.31
536.32
536.33
536.34
536.35
536.36
536.37
536.38
536.39
536.4
536.41
536.42
536.43
536.44
536.45
536.46
536.47
536.48
536.49
536.5
536.51
536.52
536.53
536.54
536.55
536.56
536.57
536.58
536.59
536.6
536.61
536.62
536.63
536.64
536.65
536.66
536.67
536.68
536.69
536.7
536.71
536.72
536.73
536.74
536.75
536.76
536.77
536.78
536.79
536.8
536.81
536.82
536.83
536.84
536.85
536.86
536.87
536.88
536.89
536.9
536.91
536.92
536.93
536.94
536.95
536.96
536.97
536.98
536.99
537
537.01
537.02
537.03
537.04
537.05
537.06
537.07
537.08
537.09
537.1
537.11
537.12
537.13
537.14
537.15
537.16
537.17
537.18
537.19
537.2
537.21
537.22
537.23
537.24
537.25
537.26
537.27
537.28
537.29
537.3
537.31
537.32
537.33
537.34
537.35
537.36
537.37
537.38
537.39
537.4
537.41
537.42
537.43
537.44
537.45
537.46
537.47
537.48
537.49
537.5
537.51
537.52
537.53
537.54
537.55
537.56
537.57
537.58
537.59
537.6
537.61
537.62
537.63
537.64
537.65
537.66
537.67
537.68
537.69
537.7
537.71
537.72
537.73
537.74
537.75
537.76
537.77
537.78
537.79
537.8
537.81
537.82
537.83
537.84
537.85
537.86
537.87
537.88
537.89
537.9
537.91
537.92
537.93
537.94
537.95
537.96
537.97
537.98
537.99
538
538.01
538.02
538.03
538.04
538.05
538.06
538.07
538.08
538.09
538.1
538.11
538.12
538.13
538.14
538.15
538.16
538.17
538.18
538.19
538.2
538.21
538.22
538.23
538.24
538.25
538.26
538.27
538.28
538.29
538.3
538.31
538.32
538.33
538.34
538.35
538.36
538.37
538.38
538.39
538.4
538.41
538.42
538.43
538.44
538.45
538.46
538.47
538.48
538.49
538.5
538.51
538.52
538.53
538.54
538.55
538.56
538.57
538.58
538.59
538.6
538.61
538.62
538.63
538.64
538.65
538.66
538.67
538.68
538.69
538.7
538.71
538.72
538.73
538.74
538.75
538.76
538.77
538.78
538.79
538.8
538.81
538.82
538.83
538.84
538.85
538.86
538.87
538.88
538.89
538.9
538.91
538.92
538.93
538.94
538.95
538.96
538.97
538.98
538.99
539
539.01
539.02
539.03
539.04
539.05
539.06
539.07
539.08
539.09
539.1
539.11
539.12
539.13
539.14
539.15
539.16
539.17
539.18
539.19
539.2
539.21
539.22
539.23
539.24
539.25
539.26
539.27
539.28
539.29
539.3
539.31
539.32
539.33
539.34
539.35
539.36
539.37
539.38
539.39
539.4
539.41
539.42
539.43
539.44
539.45
539.46
539.47
539.48
539.49
539.5
539.51
539.52
539.53
539.54
539.55
539.56
539.57
539.58
539.59
539.6
539.61
539.62
539.63
539.64
539.65
539.66
539.67
539.68
539.69
539.7
539.71
539.72
539.73
539.74
539.75
539.76
539.77
539.78
539.79
539.8
539.81
539.82
539.83
539.84
539.85
539.86
539.87
539.88
539.89
539.9
539.91
539.92
539.93
539.94
539.95
539.96
539.97
539.98
539.99
540
540.01
540.02
540.03
540.04
540.05
540.06
540.07
540.08
540.09
540.1
540.11
540.12
540.13
540.14
540.15
540.16
540.17
540.18
540.19
540.2
540.21
540.22
540.23
540.24
540.25
540.26
540.27
540.28
540.29
540.3
540.31
540.32
540.33
540.34
540.35
540.36
540.37
540.38
540.39
540.4
540.41
540.42
540.43
540.44
540.45
540.46
540.47
540.48
540.49
540.5
540.51
540.52
540.53
540.54
540.55
540.56
540.57
540.58
540.59
540.6
540.61
540.62
540.63
540.64
540.65
540.66
540.67
540.68
540.69
540.7
540.71
540.72
540.73
540.74
540.75
540.76
540.77
540.78
540.79
540.8
540.81
540.82
540.83
540.84
540.85
540.86
540.87
540.88
540.89
540.9
540.91
540.92
540.93
540.94
540.95
540.96
540.97
540.98
540.99
541
541.01
541.02
541.03
541.04
541.05
541.06
541.07
541.08
541.09
541.1
541.11
541.12
541.13
541.14
541.15
541.16
541.17
541.18
541.19
541.2
541.21
541.22
541.23
541.24
541.25
541.26
541.27
541.28
541.29
541.3
541.31
541.32
541.33
541.34
541.35
541.36
541.37
541.38
541.39
541.4
541.41
541.42
541.43
541.44
541.45
541.46
541.47
541.48
541.49
541.5
541.51
541.52
541.53
541.54
541.55
541.56
541.57
541.58
541.59
541.6
541.61
541.62
541.63
541.64
541.65
541.66
541.67
541.68
541.69
541.7
541.71
541.72
541.73
541.74
541.75
541.76
541.77
541.78
541.79
541.8
541.81
541.82
541.83
541.84
541.85
541.86
541.87
541.88
541.89
541.9
541.91
541.92
541.93
541.94
541.95
541.96
541.97
541.98
541.99
542
542.01
542.02
542.03
542.04
542.05
542.06
542.07
542.08
542.09
542.1
542.11
542.12
542.13
542.14
542.15
542.16
542.17
542.18
542.19
542.2
542.21
542.22
542.23
542.24
542.25
542.26
542.27
542.28
542.29
542.3
542.31
542.32
542.33
542.34
542.35