/*--------------------------------*- C++ -*----------------------------------*\
| =========                 |                                                 |
| \\      /  F ield         | OpenFOAM: The Open Source CFD Toolbox           |
|  \\    /   O peration     | Version:  2.3.0                                 |
|   \\  /    A nd           | Web:      www.OpenFOAM.org                      |
|    \\/     M anipulation  |                                                 |
\*---------------------------------------------------------------------------*/
FoamFile
{
    version     2.0;
    format      ascii;
    class       volScalarField;
    location    "1e-06";
    object      thermo:Cv;
}
// * * * * * * * * * * * * * * * * * * * * * * * * * * * * * * * * * * * * * //

dimensions      [0 2 -2 -1 0 0 0];

internalField   nonuniform List<scalar> 
10000
(
2595.32
2595.35
2595.39
2595.42
2595.45
2595.48
2595.51
2595.55
2595.58
2595.61
2595.64
2595.68
2595.71
2595.74
2595.77
2595.8
2595.84
2595.87
2595.9
2595.93
2595.97
2596
2596.03
2596.06
2596.09
2596.13
2596.16
2596.19
2596.22
2596.26
2596.29
2596.32
2596.35
2596.38
2596.42
2596.45
2596.48
2596.51
2596.55
2596.58
2596.61
2596.64
2596.67
2596.71
2596.74
2596.77
2596.8
2596.83
2596.87
2596.9
2596.93
2596.96
2597
2597.03
2597.06
2597.09
2597.12
2597.16
2597.19
2597.22
2597.25
2597.29
2597.32
2597.35
2597.38
2597.41
2597.45
2597.48
2597.51
2597.54
2597.57
2597.61
2597.64
2597.67
2597.7
2597.74
2597.77
2597.8
2597.83
2597.86
2597.9
2597.93
2597.96
2597.99
2598.02
2598.06
2598.09
2598.12
2598.15
2598.19
2598.22
2598.25
2598.28
2598.31
2598.35
2598.38
2598.41
2598.44
2598.47
2598.51
2598.54
2598.57
2598.6
2598.64
2598.67
2598.7
2598.73
2598.76
2598.8
2598.83
2598.86
2598.89
2598.92
2598.96
2598.99
2599.02
2599.05
2599.08
2599.12
2599.15
2599.18
2599.21
2599.25
2599.28
2599.31
2599.34
2599.37
2599.41
2599.44
2599.47
2599.5
2599.53
2599.57
2599.6
2599.63
2599.66
2599.69
2599.73
2599.76
2599.79
2599.82
2599.85
2599.89
2599.92
2599.95
2599.98
2600.02
2600.05
2600.08
2600.11
2600.14
2600.18
2600.21
2600.24
2600.27
2600.3
2600.34
2600.37
2600.4
2600.43
2600.46
2600.5
2600.53
2600.56
2600.59
2600.62
2600.66
2600.69
2600.72
2600.75
2600.78
2600.82
2600.85
2600.88
2600.91
2600.95
2600.98
2601.01
2601.04
2601.07
2601.11
2601.14
2601.17
2601.2
2601.23
2601.27
2601.3
2601.33
2601.36
2601.39
2601.43
2601.46
2601.49
2601.52
2601.55
2601.59
2601.62
2601.65
2601.68
2601.71
2601.75
2601.78
2601.81
2601.84
2601.87
2601.91
2601.94
2601.97
2602
2602.03
2602.07
2602.1
2602.13
2602.16
2602.19
2602.23
2602.26
2602.29
2602.32
2602.35
2602.39
2602.42
2602.45
2602.48
2602.51
2602.55
2602.58
2602.61
2602.64
2602.67
2602.71
2602.74
2602.77
2602.8
2602.83
2602.87
2602.9
2602.93
2602.96
2602.99
2603.03
2603.06
2603.09
2603.12
2603.15
2603.19
2603.22
2603.25
2603.28
2603.31
2603.35
2603.38
2603.41
2603.44
2603.47
2603.51
2603.54
2603.57
2603.6
2603.63
2603.67
2603.7
2603.73
2603.76
2603.79
2603.83
2603.86
2603.89
2603.92
2603.95
2603.99
2604.02
2604.05
2604.08
2604.11
2604.14
2604.18
2604.21
2604.24
2604.27
2604.3
2604.34
2604.37
2604.4
2604.43
2604.46
2604.5
2604.53
2604.56
2604.59
2604.62
2604.66
2604.69
2604.72
2604.75
2604.78
2604.82
2604.85
2604.88
2604.91
2604.94
2604.97
2605.01
2605.04
2605.07
2605.1
2605.13
2605.17
2605.2
2605.23
2605.26
2605.29
2605.33
2605.36
2605.39
2605.42
2605.45
2605.49
2605.52
2605.55
2605.58
2605.61
2605.65
2605.68
2605.71
2605.74
2605.77
2605.8
2605.84
2605.87
2605.9
2605.93
2605.96
2606
2606.03
2606.06
2606.09
2606.12
2606.16
2606.19
2606.22
2606.25
2606.28
2606.31
2606.35
2606.38
2606.41
2606.44
2606.47
2606.51
2606.54
2606.57
2606.6
2606.63
2606.67
2606.7
2606.73
2606.76
2606.79
2606.82
2606.86
2606.89
2606.92
2606.95
2606.98
2607.02
2607.05
2607.08
2607.11
2607.14
2607.17
2607.21
2607.24
2607.27
2607.3
2607.33
2607.37
2607.4
2607.43
2607.46
2607.49
2607.53
2607.56
2607.59
2607.62
2607.65
2607.68
2607.72
2607.75
2607.78
2607.81
2607.84
2607.88
2607.91
2607.94
2607.97
2608
2608.03
2608.07
2608.1
2608.13
2608.16
2608.19
2608.23
2608.26
2608.29
2608.32
2608.35
2608.38
2608.42
2608.45
2608.48
2608.51
2608.54
2608.58
2608.61
2608.64
2608.67
2608.7
2608.73
2608.77
2608.8
2608.83
2608.86
2608.89
2608.92
2608.96
2608.99
2609.02
2609.05
2609.08
2609.12
2609.15
2609.18
2609.21
2609.24
2609.27
2609.31
2609.34
2609.37
2609.4
2609.43
2609.47
2609.5
2609.53
2609.56
2609.59
2609.62
2609.66
2609.69
2609.72
2609.75
2609.78
2609.81
2609.85
2609.88
2609.91
2609.94
2609.97
2610
2610.04
2610.07
2610.1
2610.13
2610.16
2610.2
2610.23
2610.26
2610.29
2610.32
2610.35
2610.39
2610.42
2610.45
2610.48
2610.51
2610.54
2610.58
2610.61
2610.64
2610.67
2610.7
2610.73
2610.77
2610.8
2610.83
2610.86
2610.89
2610.93
2610.96
2610.99
2611.02
2611.05
2611.08
2611.12
2611.15
2611.18
2611.21
2611.24
2611.27
2611.31
2611.34
2611.37
2611.4
2611.43
2611.46
2611.5
2611.53
2611.56
2611.59
2611.62
2611.65
2611.69
2611.72
2611.75
2611.78
2611.81
2611.84
2611.88
2611.91
2611.94
2611.97
2612
2612.03
2612.07
2612.1
2612.13
2612.16
2612.19
2612.22
2612.26
2612.29
2612.32
2612.35
2612.38
2612.41
2612.45
2612.48
2612.51
2612.54
2612.57
2612.6
2612.64
2612.67
2612.7
2612.73
2612.76
2612.79
2612.83
2612.86
2612.89
2612.92
2612.95
2612.98
2613.02
2613.05
2613.08
2613.11
2613.14
2613.17
2613.21
2613.24
2613.27
2613.3
2613.33
2613.36
2613.4
2613.43
2613.46
2613.49
2613.52
2613.55
2613.59
2613.62
2613.65
2613.68
2613.71
2613.74
2613.78
2613.81
2613.84
2613.87
2613.9
2613.93
2613.97
2614
2614.03
2614.06
2614.09
2614.12
2614.16
2614.19
2614.22
2614.25
2614.28
2614.31
2614.34
2614.38
2614.41
2614.44
2614.47
2614.5
2614.53
2614.57
2614.6
2614.63
2614.66
2614.69
2614.72
2614.76
2614.79
2614.82
2614.85
2614.88
2614.91
2614.95
2614.98
2615.01
2615.04
2615.07
2615.1
2615.13
2615.17
2615.2
2615.23
2615.26
2615.29
2615.32
2615.36
2615.39
2615.42
2615.45
2615.48
2615.51
2615.54
2615.58
2615.61
2615.64
2615.67
2615.7
2615.73
2615.77
2615.8
2615.83
2615.86
2615.89
2615.92
2615.96
2615.99
2616.02
2616.05
2616.08
2616.11
2616.14
2616.18
2616.21
2616.24
2616.27
2616.3
2616.33
2616.37
2616.4
2616.43
2616.46
2616.49
2616.52
2616.55
2616.59
2616.62
2616.65
2616.68
2616.71
2616.74
2616.78
2616.81
2616.84
2616.87
2616.9
2616.93
2616.96
2617
2617.03
2617.06
2617.09
2617.12
2617.15
2617.18
2617.22
2617.25
2617.28
2617.31
2617.34
2617.37
2617.41
2617.44
2617.47
2617.5
2617.53
2617.56
2617.59
2617.63
2617.66
2617.69
2617.72
2617.75
2617.78
2617.81
2617.85
2617.88
2617.91
2617.94
2617.97
2618
2618.03
2618.07
2618.1
2618.13
2618.16
2618.19
2618.22
2618.26
2618.29
2618.32
2618.35
2618.38
2618.41
2618.44
2618.48
2618.51
2618.54
2618.57
2618.6
2618.63
2618.66
2618.7
2618.73
2618.76
2618.79
2618.82
2618.85
2618.88
2618.92
2618.95
2618.98
2619.01
2619.04
2619.07
2619.1
2619.14
2619.17
2619.2
2619.23
2619.26
2619.29
2619.32
2619.36
2619.39
2619.42
2619.45
2619.48
2619.51
2619.54
2619.58
2619.61
2619.64
2619.67
2619.7
2619.73
2619.76
2619.8
2619.83
2619.86
2619.89
2619.92
2619.95
2619.98
2620.02
2620.05
2620.08
2620.11
2620.14
2620.17
2620.2
2620.24
2620.27
2620.3
2620.33
2620.36
2620.39
2620.42
2620.46
2620.49
2620.52
2620.55
2620.58
2620.61
2620.64
2620.67
2620.71
2620.74
2620.77
2620.8
2620.83
2620.86
2620.89
2620.93
2620.96
2620.99
2621.02
2621.05
2621.08
2621.11
2621.15
2621.18
2621.21
2621.24
2621.27
2621.3
2621.33
2621.36
2621.4
2621.43
2621.46
2621.49
2621.52
2621.55
2621.58
2621.62
2621.65
2621.68
2621.71
2621.74
2621.77
2621.8
2621.84
2621.87
2621.9
2621.93
2621.96
2621.99
2622.02
2622.05
2622.09
2622.12
2622.15
2622.18
2622.21
2622.24
2622.27
2622.31
2622.34
2622.37
2622.4
2622.43
2622.46
2622.49
2622.52
2622.56
2622.59
2622.62
2622.65
2622.68
2622.71
2622.74
2622.77
2622.81
2622.84
2622.87
2622.9
2622.93
2622.96
2622.99
2623.03
2623.06
2623.09
2623.12
2623.15
2623.18
2623.21
2623.24
2623.28
2623.31
2623.34
2623.37
2623.4
2623.43
2623.46
2623.49
2623.53
2623.56
2623.59
2623.62
2623.65
2623.68
2623.71
2623.74
2623.78
2623.81
2623.84
2623.87
2623.9
2623.93
2623.96
2623.99
2624.03
2624.06
2624.09
2624.12
2624.15
2624.18
2624.21
2624.24
2624.28
2624.31
2624.34
2624.37
2624.4
2624.43
2624.46
2624.49
2624.53
2624.56
2624.59
2624.62
2624.65
2624.68
2624.71
2624.74
2624.78
2624.81
2624.84
2624.87
2624.9
2624.93
2624.96
2624.99
2625.03
2625.06
2625.09
2625.12
2625.15
2625.18
2625.21
2625.24
2625.28
2625.31
2625.34
2625.37
2625.4
2625.43
2625.46
2625.49
2625.52
2625.56
2625.59
2625.62
2625.65
2625.68
2625.71
2625.74
2625.77
2625.81
2625.84
2625.87
2625.9
2625.93
2625.96
2625.99
2626.02
2626.06
2626.09
2626.12
2626.15
2626.18
2626.21
2626.24
2626.27
2626.3
2626.34
2626.37
2626.4
2626.43
2626.46
2626.49
2626.52
2626.55
2626.59
2626.62
2626.65
2626.68
2626.71
2626.74
2626.77
2626.8
2626.83
2626.87
2626.9
2626.93
2626.96
2626.99
2627.02
2627.05
2627.08
2627.11
2627.15
2627.18
2627.21
2627.24
2627.27
2627.3
2627.33
2627.36
2627.39
2627.43
2627.46
2627.49
2627.52
2627.55
2627.58
2627.61
2627.64
2627.68
2627.71
2627.74
2627.77
2627.8
2627.83
2627.86
2627.89
2627.92
2627.96
2627.99
2628.02
2628.05
2628.08
2628.11
2628.14
2628.17
2628.2
2628.24
2628.27
2628.3
2628.33
2628.36
2628.39
2628.42
2628.45
2628.48
2628.51
2628.55
2628.58
2628.61
2628.64
2628.67
2628.7
2628.73
2628.76
2628.79
2628.83
2628.86
2628.89
2628.92
2628.95
2628.98
2629.01
2629.04
2629.07
2629.11
2629.14
2629.17
2629.2
2629.23
2629.26
2629.29
2629.32
2629.35
2629.38
2629.42
2629.45
2629.48
2629.51
2629.54
2629.57
2629.6
2629.63
2629.66
2629.7
2629.73
2629.76
2629.79
2629.82
2629.85
2629.88
2629.91
2629.94
2629.97
2630.01
2630.04
2630.07
2630.1
2630.13
2630.16
2630.19
2630.22
2630.25
2630.29
2630.32
2630.35
2630.38
2630.41
2630.44
2630.47
2630.5
2630.53
2630.56
2630.6
2630.63
2630.66
2630.69
2630.72
2630.75
2630.78
2630.81
2630.84
2630.87
2630.91
2630.94
2630.97
2631
2631.03
2631.06
2631.09
2631.12
2631.15
2631.18
2631.22
2631.25
2631.28
2631.31
2631.34
2631.37
2631.4
2631.43
2631.46
2631.49
2631.52
2631.56
2631.59
2631.62
2631.65
2631.68
2631.71
2631.74
2631.77
2631.8
2631.83
2631.87
2631.9
2631.93
2631.96
2631.99
2632.02
2632.05
2632.08
2632.11
2632.14
2632.18
2632.21
2632.24
2632.27
2632.3
2632.33
2632.36
2632.39
2632.42
2632.45
2632.48
2632.52
2632.55
2632.58
2632.61
2632.64
2632.67
2632.7
2632.73
2632.76
2632.79
2632.82
2632.86
2632.89
2632.92
2632.95
2632.98
2633.01
2633.04
2633.07
2633.1
2633.13
2633.16
2633.2
2633.23
2633.26
2633.29
2633.32
2633.35
2633.38
2633.41
2633.44
2633.47
2633.5
2633.54
2633.57
2633.6
2633.63
2633.66
2633.69
2633.72
2633.75
2633.78
2633.81
2633.84
2633.88
2633.91
2633.94
2633.97
2634
2634.03
2634.06
2634.09
2634.12
2634.15
2634.18
2634.22
2634.25
2634.28
2634.31
2634.34
2634.37
2634.4
2634.43
2634.46
2634.49
2634.52
2634.55
2634.59
2634.62
2634.65
2634.68
2634.71
2634.74
2634.77
2634.8
2634.83
2634.86
2634.89
2634.92
2634.96
2634.99
2635.02
2635.05
2635.08
2635.11
2635.14
2635.17
2635.2
2635.23
2635.26
2635.29
2635.33
2635.36
2635.39
2635.42
2635.45
2635.48
2635.51
2635.54
2635.57
2635.6
2635.63
2635.66
2635.7
2635.73
2635.76
2635.79
2635.82
2635.85
2635.88
2635.91
2635.94
2635.97
2636
2636.03
2636.06
2636.1
2636.13
2636.16
2636.19
2636.22
2636.25
2636.28
2636.31
2636.34
2636.37
2636.4
2636.43
2636.47
2636.5
2636.53
2636.56
2636.59
2636.62
2636.65
2636.68
2636.71
2636.74
2636.77
2636.8
2636.83
2636.87
2636.9
2636.93
2636.96
2636.99
2637.02
2637.05
2637.08
2637.11
2637.14
2637.17
2637.2
2637.23
2637.26
2637.3
2637.33
2637.36
2637.39
2637.42
2637.45
2637.48
2637.51
2637.54
2637.57
2637.6
2637.63
2637.66
2637.7
2637.73
2637.76
2637.79
2637.82
2637.85
2637.88
2637.91
2637.94
2637.97
2638
2638.03
2638.06
2638.09
2638.13
2638.16
2638.19
2638.22
2638.25
2638.28
2638.31
2638.34
2638.37
2638.4
2638.43
2638.46
2638.49
2638.52
2638.55
2638.59
2638.62
2638.65
2638.68
2638.71
2638.74
2638.77
2638.8
2638.83
2638.86
2638.89
2638.92
2638.95
2638.98
2639.02
2639.05
2639.08
2639.11
2639.14
2639.17
2639.2
2639.23
2639.26
2639.29
2639.32
2639.35
2639.38
2639.41
2639.44
2639.48
2639.51
2639.54
2639.57
2639.6
2639.63
2639.66
2639.69
2639.72
2639.75
2639.78
2639.81
2639.84
2639.87
2639.9
2639.93
2639.97
2640
2640.03
2640.06
2640.09
2640.12
2640.15
2640.18
2640.21
2640.24
2640.27
2640.3
2640.33
2640.36
2640.39
2640.42
2640.46
2640.49
2640.52
2640.55
2640.58
2640.61
2640.64
2640.67
2640.7
2640.73
2640.76
2640.79
2640.82
2640.85
2640.88
2640.91
2640.95
2640.98
2641.01
2641.04
2641.07
2641.1
2641.13
2641.16
2641.19
2641.22
2641.25
2641.28
2641.31
2641.34
2641.37
2641.4
2641.43
2641.46
2641.5
2641.53
2641.56
2641.59
2641.62
2641.65
2641.68
2641.71
2641.74
2641.77
2641.8
2641.83
2641.86
2641.89
2641.92
2641.95
2641.98
2642.01
2642.05
2642.08
2642.11
2642.14
2642.17
2642.2
2642.23
2642.26
2642.29
2642.32
2642.35
2642.38
2642.41
2642.44
2642.47
2642.5
2642.53
2642.56
2642.6
2642.63
2642.66
2642.69
2642.72
2642.75
2642.78
2642.81
2642.84
2642.87
2642.9
2642.93
2642.96
2642.99
2643.02
2643.05
2643.08
2643.11
2643.14
2643.17
2643.21
2643.24
2643.27
2643.3
2643.33
2643.36
2643.39
2643.42
2643.45
2643.48
2643.51
2643.54
2643.57
2643.6
2643.63
2643.66
2643.69
2643.72
2643.75
2643.78
2643.82
2643.85
2643.88
2643.91
2643.94
2643.97
2644
2644.03
2644.06
2644.09
2644.12
2644.15
2644.18
2644.21
2644.24
2644.27
2644.3
2644.33
2644.36
2644.39
2644.42
2644.45
2644.49
2644.52
2644.55
2644.58
2644.61
2644.64
2644.67
2644.7
2644.73
2644.76
2644.79
2644.82
2644.85
2644.88
2644.91
2644.94
2644.97
2645
2645.03
2645.06
2645.09
2645.12
2645.15
2645.18
2645.22
2645.25
2645.28
2645.31
2645.34
2645.37
2645.4
2645.43
2645.46
2645.49
2645.52
2645.55
2645.58
2645.61
2645.64
2645.67
2645.7
2645.73
2645.76
2645.79
2645.82
2645.85
2645.88
2645.91
2645.94
2645.98
2646.01
2646.04
2646.07
2646.1
2646.13
2646.16
2646.19
2646.22
2646.25
2646.28
2646.31
2646.34
2646.37
2646.4
2646.43
2646.46
2646.49
2646.52
2646.55
2646.58
2646.61
2646.64
2646.67
2646.7
2646.73
2646.76
2646.79
2646.83
2646.86
2646.89
2646.92
2646.95
2646.98
2647.01
2647.04
2647.07
2647.1
2647.13
2647.16
2647.19
2647.22
2647.25
2647.28
2647.31
2647.34
2647.37
2647.4
2647.43
2647.46
2647.49
2647.52
2647.55
2647.58
2647.61
2647.64
2647.67
2647.7
2647.73
2647.77
2647.8
2647.83
2647.86
2647.89
2647.92
2647.95
2647.98
2648.01
2648.04
2648.07
2648.1
2648.13
2648.16
2648.19
2648.22
2648.25
2648.28
2648.31
2648.34
2648.37
2648.4
2648.43
2648.46
2648.49
2648.52
2648.55
2648.58
2648.61
2648.64
2648.67
2648.7
2648.73
2648.76
2648.79
2648.82
2648.85
2648.89
2648.92
2648.95
2648.98
2649.01
2649.04
2649.07
2649.1
2649.13
2649.16
2649.19
2649.22
2649.25
2649.28
2649.31
2649.34
2649.37
2649.4
2649.43
2649.46
2649.49
2649.52
2649.55
2649.58
2649.61
2649.64
2649.67
2649.7
2649.73
2649.76
2649.79
2649.82
2649.85
2649.88
2649.91
2649.94
2649.97
2650
2650.03
2650.06
2650.09
2650.12
2650.15
2650.18
2650.21
2650.25
2650.28
2650.31
2650.34
2650.37
2650.4
2650.43
2650.46
2650.49
2650.52
2650.55
2650.58
2650.61
2650.64
2650.67
2650.7
2650.73
2650.76
2650.79
2650.82
2650.85
2650.88
2650.91
2650.94
2650.97
2651
2651.03
2651.06
2651.09
2651.12
2651.15
2651.18
2651.21
2651.24
2651.27
2651.3
2651.33
2651.36
2651.39
2651.42
2651.45
2651.48
2651.51
2651.54
2651.57
2651.6
2651.63
2651.66
2651.69
2651.72
2651.75
2651.78
2651.81
2651.84
2651.87
2651.9
2651.93
2651.96
2651.99
2652.02
2652.05
2652.08
2652.11
2652.14
2652.17
2652.2
2652.23
2652.26
2652.29
2652.32
2652.35
2652.38
2652.41
2652.45
2652.48
2652.51
2652.54
2652.57
2652.6
2652.63
2652.66
2652.69
2652.72
2652.75
2652.78
2652.81
2652.84
2652.87
2652.9
2652.93
2652.96
2652.99
2653.02
2653.05
2653.08
2653.11
2653.14
2653.17
2653.2
2653.23
2653.26
2653.29
2653.32
2653.35
2653.38
2653.41
2653.44
2653.47
2653.5
2653.53
2653.56
2653.59
2653.62
2653.65
2653.68
2653.71
2653.74
2653.77
2653.8
2653.83
2653.86
2653.89
2653.92
2653.95
2653.98
2654.01
2654.04
2654.07
2654.1
2654.13
2654.16
2654.19
2654.22
2654.25
2654.28
2654.31
2654.34
2654.37
2654.4
2654.43
2654.46
2654.49
2654.52
2654.55
2654.58
2654.61
2654.64
2654.67
2654.7
2654.73
2654.76
2654.79
2654.82
2654.85
2654.88
2654.91
2654.94
2654.97
2655
2655.03
2655.06
2655.09
2655.12
2655.15
2655.18
2655.21
2655.24
2655.27
2655.3
2655.33
2655.36
2655.39
2655.42
2655.45
2655.48
2655.51
2655.54
2655.57
2655.6
2655.63
2655.66
2655.69
2655.72
2655.75
2655.78
2655.81
2655.84
2655.87
2655.9
2655.93
2655.96
2655.99
2656.02
2656.05
2656.08
2656.11
2656.14
2656.17
2656.2
2656.22
2656.25
2656.28
2656.31
2656.34
2656.37
2656.4
2656.43
2656.46
2656.49
2656.52
2656.55
2656.58
2656.61
2656.64
2656.67
2656.7
2656.73
2656.76
2656.79
2656.82
2656.85
2656.88
2656.91
2656.94
2656.97
2657
2657.03
2657.06
2657.09
2657.12
2657.15
2657.18
2657.21
2657.24
2657.27
2657.3
2657.33
2657.36
2657.39
2657.42
2657.45
2657.48
2657.51
2657.54
2657.57
2657.6
2657.63
2657.66
2657.69
2657.72
2657.75
2657.78
2657.81
2657.84
2657.87
2657.9
2657.93
2657.96
2657.99
2658.02
2658.05
2658.08
2658.11
2658.14
2658.17
2658.2
2658.23
2658.26
2658.29
2658.32
2658.34
2658.37
2658.4
2658.43
2658.46
2658.49
2658.52
2658.55
2658.58
2658.61
2658.64
2658.67
2658.7
2658.73
2658.76
2658.79
2658.82
2658.85
2658.88
2658.91
2658.94
2658.97
2659
2659.03
2659.06
2659.09
2659.12
2659.15
2659.18
2659.21
2659.24
2659.27
2659.3
2659.33
2659.36
2659.39
2659.42
2659.45
2659.48
2659.51
2659.54
2659.57
2659.6
2659.63
2659.66
2659.68
2659.71
2659.74
2659.77
2659.8
2659.83
2659.86
2659.89
2659.92
2659.95
2659.98
2660.01
2660.04
2660.07
2660.1
2660.13
2660.16
2660.19
2660.22
2660.25
2660.28
2660.31
2660.34
2660.37
2660.4
2660.43
2660.46
2660.49
2660.52
2660.55
2660.58
2660.61
2660.64
2660.67
2660.7
2660.72
2660.75
2660.78
2660.81
2660.84
2660.87
2660.9
2660.93
2660.96
2660.99
2661.02
2661.05
2661.08
2661.11
2661.14
2661.17
2661.2
2661.23
2661.26
2661.29
2661.32
2661.35
2661.38
2661.41
2661.44
2661.47
2661.5
2661.53
2661.56
2661.59
2661.61
2661.64
2661.67
2661.7
2661.73
2661.76
2661.79
2661.82
2661.85
2661.88
2661.91
2661.94
2661.97
2662
2662.03
2662.06
2662.09
2662.12
2662.15
2662.18
2662.21
2662.24
2662.27
2662.3
2662.33
2662.36
2662.39
2662.41
2662.44
2662.47
2662.5
2662.53
2662.56
2662.59
2662.62
2662.65
2662.68
2662.71
2662.74
2662.77
2662.8
2662.83
2662.86
2662.89
2662.92
2662.95
2662.98
2663.01
2663.04
2663.07
2663.1
2663.13
2663.15
2663.18
2663.21
2663.24
2663.27
2663.3
2663.33
2663.36
2663.39
2663.42
2663.45
2663.48
2663.51
2663.54
2663.57
2663.6
2663.63
2663.66
2663.69
2663.72
2663.75
2663.78
2663.8
2663.83
2663.86
2663.89
2663.92
2663.95
2663.98
2664.01
2664.04
2664.07
2664.1
2664.13
2664.16
2664.19
2664.22
2664.25
2664.28
2664.31
2664.34
2664.37
2664.4
2664.42
2664.45
2664.48
2664.51
2664.54
2664.57
2664.6
2664.63
2664.66
2664.69
2664.72
2664.75
2664.78
2664.81
2664.84
2664.87
2664.9
2664.93
2664.96
2664.98
2665.01
2665.04
2665.07
2665.1
2665.13
2665.16
2665.19
2665.22
2665.25
2665.28
2665.31
2665.34
2665.37
2665.4
2665.43
2665.46
2665.49
2665.52
2665.54
2665.57
2665.6
2665.63
2665.66
2665.69
2665.72
2665.75
2665.78
2665.81
2665.84
2665.87
2665.9
2665.93
2665.96
2665.99
2666.02
2666.05
2666.07
2666.1
2666.13
2666.16
2666.19
2666.22
2666.25
2666.28
2666.31
2666.34
2666.37
2666.4
2666.43
2666.46
2666.49
2666.52
2666.55
2666.57
2666.6
2666.63
2666.66
2666.69
2666.72
2666.75
2666.78
2666.81
2666.84
2666.87
2666.9
2666.93
2666.96
2666.99
2667.02
2667.04
2667.07
2667.1
2667.13
2667.16
2667.19
2667.22
2667.25
2667.28
2667.31
2667.34
2667.37
2667.4
2667.43
2667.46
2667.48
2667.51
2667.54
2667.57
2667.6
2667.63
2667.66
2667.69
2667.72
2667.75
2667.78
2667.81
2667.84
2667.87
2667.9
2667.92
2667.95
2667.98
2668.01
2668.04
2668.07
2668.1
2668.13
2668.16
2668.19
2668.22
2668.25
2668.28
2668.31
2668.34
2668.36
2668.39
2668.42
2668.45
2668.48
2668.51
2668.54
2668.57
2668.6
2668.63
2668.66
2668.69
2668.72
2668.75
2668.77
2668.8
2668.83
2668.86
2668.89
2668.92
2668.95
2668.98
2669.01
2669.04
2669.07
2669.1
2669.13
2669.15
2669.18
2669.21
2669.24
2669.27
2669.3
2669.33
2669.36
2669.39
2669.42
2669.45
2669.48
2669.51
2669.54
2669.56
2669.59
2669.62
2669.65
2669.68
2669.71
2669.74
2669.77
2669.8
2669.83
2669.86
2669.89
2669.92
2669.94
2669.97
2670
2670.03
2670.06
2670.09
2670.12
2670.15
2670.18
2670.21
2670.24
2670.27
2670.29
2670.32
2670.35
2670.38
2670.41
2670.44
2670.47
2670.5
2670.53
2670.56
2670.59
2670.62
2670.64
2670.67
2670.7
2670.73
2670.76
2670.79
2670.82
2670.85
2670.88
2670.91
2670.94
2670.97
2670.99
2671.02
2671.05
2671.08
2671.11
2671.14
2671.17
2671.2
2671.23
2671.26
2671.29
2671.32
2671.34
2671.37
2671.4
2671.43
2671.46
2671.49
2671.52
2671.55
2671.58
2671.61
2671.64
2671.66
2671.69
2671.72
2671.75
2671.78
2671.81
2671.84
2671.87
2671.9
2671.93
2671.96
2671.99
2672.01
2672.04
2672.07
2672.1
2672.13
2672.16
2672.19
2672.22
2672.25
2672.28
2672.31
2672.33
2672.36
2672.39
2672.42
2672.45
2672.48
2672.51
2672.54
2672.57
2672.6
2672.62
2672.65
2672.68
2672.71
2672.74
2672.77
2672.8
2672.83
2672.86
2672.89
2672.92
2672.94
2672.97
2673
2673.03
2673.06
2673.09
2673.12
2673.15
2673.18
2673.21
2673.23
2673.26
2673.29
2673.32
2673.35
2673.38
2673.41
2673.44
2673.47
2673.5
2673.53
2673.55
2673.58
2673.61
2673.64
2673.67
2673.7
2673.73
2673.76
2673.79
2673.82
2673.84
2673.87
2673.9
2673.93
2673.96
2673.99
2674.02
2674.05
2674.08
2674.11
2674.13
2674.16
2674.19
2674.22
2674.25
2674.28
2674.31
2674.34
2674.37
2674.39
2674.42
2674.45
2674.48
2674.51
2674.54
2674.57
2674.6
2674.63
2674.66
2674.68
2674.71
2674.74
2674.77
2674.8
2674.83
2674.86
2674.89
2674.92
2674.94
2674.97
2675
2675.03
2675.06
2675.09
2675.12
2675.15
2675.18
2675.21
2675.23
2675.26
2675.29
2675.32
2675.35
2675.38
2675.41
2675.44
2675.47
2675.49
2675.52
2675.55
2675.58
2675.61
2675.64
2675.67
2675.7
2675.73
2675.75
2675.78
2675.81
2675.84
2675.87
2675.9
2675.93
2675.96
2675.99
2676.01
2676.04
2676.07
2676.1
2676.13
2676.16
2676.19
2676.22
2676.25
2676.27
2676.3
2676.33
2676.36
2676.39
2676.42
2676.45
2676.48
2676.5
2676.53
2676.56
2676.59
2676.62
2676.65
2676.68
2676.71
2676.74
2676.76
2676.79
2676.82
2676.85
2676.88
2676.91
2676.94
2676.97
2677
2677.02
2677.05
2677.08
2677.11
2677.14
2677.17
2677.2
2677.23
2677.25
2677.28
2677.31
2677.34
2677.37
2677.4
2677.43
2677.46
2677.48
2677.51
2677.54
2677.57
2677.6
2677.63
2677.66
2677.69
2677.71
2677.74
2677.77
2677.8
2677.83
2677.86
2677.89
2677.92
2677.94
2677.97
2678
2678.03
2678.06
2678.09
2678.12
2678.15
2678.18
2678.2
2678.23
2678.26
2678.29
2678.32
2678.35
2678.38
2678.4
2678.43
2678.46
2678.49
2678.52
2678.55
2678.58
2678.61
2678.63
2678.66
2678.69
2678.72
2678.75
2678.78
2678.81
2678.84
2678.86
2678.89
2678.92
2678.95
2678.98
2679.01
2679.04
2679.07
2679.09
2679.12
2679.15
2679.18
2679.21
2679.24
2679.27
2679.29
2679.32
2679.35
2679.38
2679.41
2679.44
2679.47
2679.5
2679.52
2679.55
2679.58
2679.61
2679.64
2679.67
2679.7
2679.72
2679.75
2679.78
2679.81
2679.84
2679.87
2679.9
2679.93
2679.95
2679.98
2680.01
2680.04
2680.07
2680.1
2680.13
2680.15
2680.18
2680.21
2680.24
2680.27
2680.3
2680.33
2680.35
2680.38
2680.41
2680.44
2680.47
2680.5
2680.53
2680.55
2680.58
2680.61
2680.64
2680.67
2680.7
2680.73
2680.76
2680.78
2680.81
2680.84
2680.87
2680.9
2680.93
2680.96
2680.98
2681.01
2681.04
2681.07
2681.1
2681.13
2681.16
2681.18
2681.21
2681.24
2681.27
2681.3
2681.33
2681.36
2681.38
2681.41
2681.44
2681.47
2681.5
2681.53
2681.55
2681.58
2681.61
2681.64
2681.67
2681.7
2681.73
2681.75
2681.78
2681.81
2681.84
2681.87
2681.9
2681.93
2681.95
2681.98
2682.01
2682.04
2682.07
2682.1
2682.13
2682.15
2682.18
2682.21
2682.24
2682.27
2682.3
2682.32
2682.35
2682.38
2682.41
2682.44
2682.47
2682.5
2682.52
2682.55
2682.58
2682.61
2682.64
2682.67
2682.7
2682.72
2682.75
2682.78
2682.81
2682.84
2682.87
2682.89
2682.92
2682.95
2682.98
2683.01
2683.04
2683.07
2683.09
2683.12
2683.15
2683.18
2683.21
2683.24
2683.26
2683.29
2683.32
2683.35
2683.38
2683.41
2683.43
2683.46
2683.49
2683.52
2683.55
2683.58
2683.61
2683.63
2683.66
2683.69
2683.72
2683.75
2683.78
2683.8
2683.83
2683.86
2683.89
2683.92
2683.95
2683.97
2684
2684.03
2684.06
2684.09
2684.12
2684.14
2684.17
2684.2
2684.23
2684.26
2684.29
2684.32
2684.34
2684.37
2684.4
2684.43
2684.46
2684.49
2684.51
2684.54
2684.57
2684.6
2684.63
2684.66
2684.68
2684.71
2684.74
2684.77
2684.8
2684.83
2684.85
2684.88
2684.91
2684.94
2684.97
2685
2685.02
2685.05
2685.08
2685.11
2685.14
2685.17
2685.19
2685.22
2685.25
2685.28
2685.31
2685.34
2685.36
2685.39
2685.42
2685.45
2685.48
2685.51
2685.53
2685.56
2685.59
2685.62
2685.65
2685.67
2685.7
2685.73
2685.76
2685.79
2685.82
2685.84
2685.87
2685.9
2685.93
2685.96
2685.99
2686.01
2686.04
2686.07
2686.1
2686.13
2686.16
2686.18
2686.21
2686.24
2686.27
2686.3
2686.32
2686.35
2686.38
2686.41
2686.44
2686.47
2686.49
2686.52
2686.55
2686.58
2686.61
2686.64
2686.66
2686.69
2686.72
2686.75
2686.78
2686.8
2686.83
2686.86
2686.89
2686.92
2686.95
2686.97
2687
2687.03
2687.06
2687.09
2687.11
2687.14
2687.17
2687.2
2687.23
2687.26
2687.28
2687.31
2687.34
2687.37
2687.4
2687.42
2687.45
2687.48
2687.51
2687.54
2687.57
2687.59
2687.62
2687.65
2687.68
2687.71
2687.73
2687.76
2687.79
2687.82
2687.85
2687.88
2687.9
2687.93
2687.96
2687.99
2688.02
2688.04
2688.07
2688.1
2688.13
2688.16
2688.18
2688.21
2688.24
2688.27
2688.3
2688.33
2688.35
2688.38
2688.41
2688.44
2688.47
2688.49
2688.52
2688.55
2688.58
2688.61
2688.63
2688.66
2688.69
2688.72
2688.75
2688.77
2688.8
2688.83
2688.86
2688.89
2688.91
2688.94
2688.97
2689
2689.03
2689.06
2689.08
2689.11
2689.14
2689.17
2689.2
2689.22
2689.25
2689.28
2689.31
2689.34
2689.36
2689.39
2689.42
2689.45
2689.48
2689.5
2689.53
2689.56
2689.59
2689.62
2689.64
2689.67
2689.7
2689.73
2689.76
2689.78
2689.81
2689.84
2689.87
2689.9
2689.92
2689.95
2689.98
2690.01
2690.04
2690.06
2690.09
2690.12
2690.15
2690.18
2690.2
2690.23
2690.26
2690.29
2690.32
2690.34
2690.37
2690.4
2690.43
2690.46
2690.48
2690.51
2690.54
2690.57
2690.6
2690.62
2690.65
2690.68
2690.71
2690.74
2690.76
2690.79
2690.82
2690.85
2690.87
2690.9
2690.93
2690.96
2690.99
2691.01
2691.04
2691.07
2691.1
2691.13
2691.15
2691.18
2691.21
2691.24
2691.27
2691.29
2691.32
2691.35
2691.38
2691.41
2691.43
2691.46
2691.49
2691.52
2691.54
2691.57
2691.6
2691.63
2691.66
2691.68
2691.71
2691.74
2691.77
2691.8
2691.82
2691.85
2691.88
2691.91
2691.94
2691.96
2691.99
2692.02
2692.05
2692.07
2692.1
2692.13
2692.16
2692.19
2692.21
2692.24
2692.27
2692.3
2692.32
2692.35
2692.38
2692.41
2692.44
2692.46
2692.49
2692.52
2692.55
2692.58
2692.6
2692.63
2692.66
2692.69
2692.71
2692.74
2692.77
2692.8
2692.83
2692.85
2692.88
2692.91
2692.94
2692.96
2692.99
2693.02
2693.05
2693.08
2693.1
2693.13
2693.16
2693.19
2693.21
2693.24
2693.27
2693.3
2693.33
2693.35
2693.38
2693.41
2693.44
2693.46
2693.49
2693.52
2693.55
2693.58
2693.6
2693.63
2693.66
2693.69
2693.71
2693.74
2693.77
2693.8
2693.83
2693.85
2693.88
2693.91
2693.94
2693.96
2693.99
2694.02
2694.05
2694.07
2694.1
2694.13
2694.16
2694.19
2694.21
2694.24
2694.27
2694.3
2694.32
2694.35
2694.38
2694.41
2694.43
2694.46
2694.49
2694.52
2694.55
2694.57
2694.6
2694.63
2694.66
2694.68
2694.71
2694.74
2694.77
2694.79
2694.82
2694.85
2694.88
2694.91
2694.93
2694.96
2694.99
2695.02
2695.04
2695.07
2695.1
2695.13
2695.15
2695.18
2695.21
2695.24
2695.26
2695.29
2695.32
2695.35
2695.37
2695.4
2695.43
2695.46
2695.49
2695.51
2695.54
2695.57
2695.6
2695.62
2695.65
2695.68
2695.71
2695.73
2695.76
2695.79
2695.82
2695.84
2695.87
2695.9
2695.93
2695.95
2695.98
2696.01
2696.04
2696.06
2696.09
2696.12
2696.15
2696.17
2696.2
2696.23
2696.26
2696.28
2696.31
2696.34
2696.37
2696.4
2696.42
2696.45
2696.48
2696.51
2696.53
2696.56
2696.59
2696.62
2696.64
2696.67
2696.7
2696.73
2696.75
2696.78
2696.81
2696.84
2696.86
2696.89
2696.92
2696.95
2696.97
2697
2697.03
2697.06
2697.08
2697.11
2697.14
2697.17
2697.19
2697.22
2697.25
2697.28
2697.3
2697.33
2697.36
2697.39
2697.41
2697.44
2697.47
2697.5
2697.52
2697.55
2697.58
2697.6
2697.63
2697.66
2697.69
2697.71
2697.74
2697.77
2697.8
2697.82
2697.85
2697.88
2697.91
2697.93
2697.96
2697.99
2698.02
2698.04
2698.07
2698.1
2698.13
2698.15
2698.18
2698.21
2698.24
2698.26
2698.29
2698.32
2698.35
2698.37
2698.4
2698.43
2698.45
2698.48
2698.51
2698.54
2698.56
2698.59
2698.62
2698.65
2698.67
2698.7
2698.73
2698.76
2698.78
2698.81
2698.84
2698.87
2698.89
2698.92
2698.95
2698.97
2699
2699.03
2699.06
2699.08
2699.11
2699.14
2699.17
2699.19
2699.22
2699.25
2699.28
2699.3
2699.33
2699.36
2699.38
2699.41
2699.44
2699.47
2699.49
2699.52
2699.55
2699.58
2699.6
2699.63
2699.66
2699.69
2699.71
2699.74
2699.77
2699.79
2699.82
2699.85
2699.88
2699.9
2699.93
2699.96
2699.99
2700.01
2700.04
2700.07
2700.09
2700.12
2700.15
2700.18
2700.2
2700.23
2700.26
2700.29
2700.31
2700.34
2700.37
2700.39
2700.42
2700.45
2700.48
2700.5
2700.53
2700.56
2700.58
2700.61
2700.64
2700.67
2700.69
2700.72
2700.75
2700.78
2700.8
2700.83
2700.86
2700.88
2700.91
2700.94
2700.97
2700.99
2701.02
2701.05
2701.07
2701.1
2701.13
2701.16
2701.18
2701.21
2701.24
2701.26
2701.29
2701.32
2701.35
2701.37
2701.4
2701.43
2701.45
2701.48
2701.51
2701.54
2701.56
2701.59
2701.62
2701.64
2701.67
2701.7
2701.73
2701.75
2701.78
2701.81
2701.83
2701.86
2701.89
2701.92
2701.94
2701.97
2702
2702.02
2702.05
2702.08
2702.11
2702.13
2702.16
2702.19
2702.21
2702.24
2702.27
2702.3
2702.32
2702.35
2702.38
2702.4
2702.43
2702.46
2702.48
2702.51
2702.54
2702.57
2702.59
2702.62
2702.65
2702.67
2702.7
2702.73
2702.76
2702.78
2702.81
2702.84
2702.86
2702.89
2702.92
2702.94
2702.97
2703
2703.03
2703.05
2703.08
2703.11
2703.13
2703.16
2703.19
2703.22
2703.24
2703.27
2703.3
2703.32
2703.35
2703.38
2703.4
2703.43
2703.46
2703.49
2703.51
2703.54
2703.57
2703.59
2703.62
2703.65
2703.67
2703.7
2703.73
2703.75
2703.78
2703.81
2703.84
2703.86
2703.89
2703.92
2703.94
2703.97
2704
2704.02
2704.05
2704.08
2704.11
2704.13
2704.16
2704.19
2704.21
2704.24
2704.27
2704.29
2704.32
2704.35
2704.37
2704.4
2704.43
2704.46
2704.48
2704.51
2704.54
2704.56
2704.59
2704.62
2704.64
2704.67
2704.7
2704.72
2704.75
2704.78
2704.8
2704.83
2704.86
2704.89
2704.91
2704.94
2704.97
2704.99
2705.02
2705.05
2705.07
2705.1
2705.13
2705.15
2705.18
2705.21
2705.23
2705.26
2705.29
2705.32
2705.34
2705.37
2705.4
2705.42
2705.45
2705.48
2705.5
2705.53
2705.56
2705.58
2705.61
2705.64
2705.66
2705.69
2705.72
2705.74
2705.77