/*--------------------------------*- C++ -*----------------------------------*\
| =========                 |                                                 |
| \\      /  F ield         | OpenFOAM: The Open Source CFD Toolbox           |
|  \\    /   O peration     | Version:  2.3.0                                 |
|   \\  /    A nd           | Web:      www.OpenFOAM.org                      |
|    \\/     M anipulation  |                                                 |
\*---------------------------------------------------------------------------*/
FoamFile
{
    version     2.0;
    format      ascii;
    class       volScalarField;
    location    "1e-06";
    object      thermo:kappa;
}
// * * * * * * * * * * * * * * * * * * * * * * * * * * * * * * * * * * * * * //

dimensions      [1 1 -3 -1 0 0 0];

internalField   nonuniform List<scalar> 
10000
(
0.057843
0.0578406
0.0578382
0.0578358
0.0578334
0.057831
0.0578287
0.0578263
0.0578239
0.0578215
0.0578191
0.0578167
0.0578144
0.057812
0.0578096
0.0578072
0.0578048
0.0578024
0.0578
0.0577977
0.0577953
0.0577929
0.0577905
0.0577881
0.0577857
0.0577833
0.0577809
0.0577786
0.0577762
0.0577738
0.0577714
0.057769
0.0577666
0.0577642
0.0577618
0.0577594
0.0577571
0.0577547
0.0577523
0.0577499
0.0577475
0.0577451
0.0577427
0.0577403
0.0577379
0.0577355
0.0577331
0.0577308
0.0577284
0.057726
0.0577236
0.0577212
0.0577188
0.0577164
0.057714
0.0577116
0.0577092
0.0577068
0.0577044
0.057702
0.0576996
0.0576973
0.0576949
0.0576925
0.0576901
0.0576877
0.0576853
0.0576829
0.0576805
0.0576781
0.0576757
0.0576733
0.0576709
0.0576685
0.0576661
0.0576637
0.0576613
0.0576589
0.0576565
0.0576541
0.0576517
0.0576493
0.0576469
0.0576445
0.0576421
0.0576397
0.0576373
0.0576349
0.0576325
0.0576301
0.0576277
0.0576253
0.0576229
0.0576205
0.0576181
0.0576157
0.0576133
0.0576109
0.0576085
0.0576061
0.0576037
0.0576013
0.0575989
0.0575965
0.0575941
0.0575917
0.0575893
0.0575869
0.0575845
0.0575821
0.0575797
0.0575773
0.0575749
0.0575725
0.0575701
0.0575677
0.0575653
0.0575629
0.0575605
0.0575581
0.0575557
0.0575532
0.0575508
0.0575484
0.057546
0.0575436
0.0575412
0.0575388
0.0575364
0.057534
0.0575316
0.0575292
0.0575268
0.0575244
0.057522
0.0575195
0.0575171
0.0575147
0.0575123
0.0575099
0.0575075
0.0575051
0.0575027
0.0575003
0.0574979
0.0574955
0.057493
0.0574906
0.0574882
0.0574858
0.0574834
0.057481
0.0574786
0.0574762
0.0574738
0.0574713
0.0574689
0.0574665
0.0574641
0.0574617
0.0574593
0.0574569
0.0574544
0.057452
0.0574496
0.0574472
0.0574448
0.0574424
0.05744
0.0574375
0.0574351
0.0574327
0.0574303
0.0574279
0.0574255
0.0574231
0.0574206
0.0574182
0.0574158
0.0574134
0.057411
0.0574086
0.0574061
0.0574037
0.0574013
0.0573989
0.0573965
0.057394
0.0573916
0.0573892
0.0573868
0.0573844
0.057382
0.0573795
0.0573771
0.0573747
0.0573723
0.0573699
0.0573674
0.057365
0.0573626
0.0573602
0.0573577
0.0573553
0.0573529
0.0573505
0.0573481
0.0573456
0.0573432
0.0573408
0.0573384
0.0573359
0.0573335
0.0573311
0.0573287
0.0573263
0.0573238
0.0573214
0.057319
0.0573166
0.0573141
0.0573117
0.0573093
0.0573069
0.0573044
0.057302
0.0572996
0.0572972
0.0572947
0.0572923
0.0572899
0.0572874
0.057285
0.0572826
0.0572802
0.0572777
0.0572753
0.0572729
0.0572705
0.057268
0.0572656
0.0572632
0.0572607
0.0572583
0.0572559
0.0572535
0.057251
0.0572486
0.0572462
0.0572437
0.0572413
0.0572389
0.0572364
0.057234
0.0572316
0.0572291
0.0572267
0.0572243
0.0572219
0.0572194
0.057217
0.0572146
0.0572121
0.0572097
0.0572073
0.0572048
0.0572024
0.0572
0.0571975
0.0571951
0.0571927
0.0571902
0.0571878
0.0571853
0.0571829
0.0571805
0.057178
0.0571756
0.0571732
0.0571707
0.0571683
0.0571659
0.0571634
0.057161
0.0571586
0.0571561
0.0571537
0.0571512
0.0571488
0.0571464
0.0571439
0.0571415
0.057139
0.0571366
0.0571342
0.0571317
0.0571293
0.0571269
0.0571244
0.057122
0.0571195
0.0571171
0.0571147
0.0571122
0.0571098
0.0571073
0.0571049
0.0571024
0.0571
0.0570976
0.0570951
0.0570927
0.0570902
0.0570878
0.0570853
0.0570829
0.0570805
0.057078
0.0570756
0.0570731
0.0570707
0.0570682
0.0570658
0.0570634
0.0570609
0.0570585
0.057056
0.0570536
0.0570511
0.0570487
0.0570462
0.0570438
0.0570413
0.0570389
0.0570364
0.057034
0.0570316
0.0570291
0.0570267
0.0570242
0.0570218
0.0570193
0.0570169
0.0570144
0.057012
0.0570095
0.0570071
0.0570046
0.0570022
0.0569997
0.0569973
0.0569948
0.0569924
0.0569899
0.0569875
0.056985
0.0569826
0.0569801
0.0569777
0.0569752
0.0569728
0.0569703
0.0569679
0.0569654
0.0569629
0.0569605
0.056958
0.0569556
0.0569531
0.0569507
0.0569482
0.0569458
0.0569433
0.0569409
0.0569384
0.056936
0.0569335
0.056931
0.0569286
0.0569261
0.0569237
0.0569212
0.0569188
0.0569163
0.0569139
0.0569114
0.0569089
0.0569065
0.056904
0.0569016
0.0568991
0.0568966
0.0568942
0.0568917
0.0568893
0.0568868
0.0568844
0.0568819
0.0568794
0.056877
0.0568745
0.0568721
0.0568696
0.0568671
0.0568647
0.0568622
0.0568598
0.0568573
0.0568548
0.0568524
0.0568499
0.0568474
0.056845
0.0568425
0.0568401
0.0568376
0.0568351
0.0568327
0.0568302
0.0568277
0.0568253
0.0568228
0.0568203
0.0568179
0.0568154
0.056813
0.0568105
0.056808
0.0568056
0.0568031
0.0568006
0.0567982
0.0567957
0.0567932
0.0567908
0.0567883
0.0567858
0.0567834
0.0567809
0.0567784
0.056776
0.0567735
0.056771
0.0567685
0.0567661
0.0567636
0.0567611
0.0567587
0.0567562
0.0567537
0.0567513
0.0567488
0.0567463
0.0567439
0.0567414
0.0567389
0.0567364
0.056734
0.0567315
0.056729
0.0567266
0.0567241
0.0567216
0.0567191
0.0567167
0.0567142
0.0567117
0.0567092
0.0567068
0.0567043
0.0567018
0.0566993
0.0566969
0.0566944
0.0566919
0.0566895
0.056687
0.0566845
0.056682
0.0566795
0.0566771
0.0566746
0.0566721
0.0566696
0.0566672
0.0566647
0.0566622
0.0566597
0.0566573
0.0566548
0.0566523
0.0566498
0.0566473
0.0566449
0.0566424
0.0566399
0.0566374
0.056635
0.0566325
0.05663
0.0566275
0.056625
0.0566226
0.0566201
0.0566176
0.0566151
0.0566126
0.0566101
0.0566077
0.0566052
0.0566027
0.0566002
0.0565977
0.0565953
0.0565928
0.0565903
0.0565878
0.0565853
0.0565828
0.0565804
0.0565779
0.0565754
0.0565729
0.0565704
0.0565679
0.0565654
0.056563
0.0565605
0.056558
0.0565555
0.056553
0.0565505
0.056548
0.0565456
0.0565431
0.0565406
0.0565381
0.0565356
0.0565331
0.0565306
0.0565281
0.0565257
0.0565232
0.0565207
0.0565182
0.0565157
0.0565132
0.0565107
0.0565082
0.0565057
0.0565033
0.0565008
0.0564983
0.0564958
0.0564933
0.0564908
0.0564883
0.0564858
0.0564833
0.0564808
0.0564783
0.0564758
0.0564734
0.0564709
0.0564684
0.0564659
0.0564634
0.0564609
0.0564584
0.0564559
0.0564534
0.0564509
0.0564484
0.0564459
0.0564434
0.0564409
0.0564384
0.0564359
0.0564334
0.056431
0.0564285
0.056426
0.0564235
0.056421
0.0564185
0.056416
0.0564135
0.056411
0.0564085
0.056406
0.0564035
0.056401
0.0563985
0.056396
0.0563935
0.056391
0.0563885
0.056386
0.0563835
0.056381
0.0563785
0.056376
0.0563735
0.056371
0.0563685
0.056366
0.0563635
0.056361
0.0563585
0.056356
0.0563535
0.056351
0.0563485
0.056346
0.0563435
0.056341
0.0563385
0.056336
0.0563334
0.0563309
0.0563284
0.0563259
0.0563234
0.0563209
0.0563184
0.0563159
0.0563134
0.0563109
0.0563084
0.0563059
0.0563034
0.0563009
0.0562984
0.0562959
0.0562934
0.0562908
0.0562883
0.0562858
0.0562833
0.0562808
0.0562783
0.0562758
0.0562733
0.0562708
0.0562683
0.0562658
0.0562633
0.0562607
0.0562582
0.0562557
0.0562532
0.0562507
0.0562482
0.0562457
0.0562432
0.0562407
0.0562381
0.0562356
0.0562331
0.0562306
0.0562281
0.0562256
0.0562231
0.0562206
0.056218
0.0562155
0.056213
0.0562105
0.056208
0.0562055
0.056203
0.0562004
0.0561979
0.0561954
0.0561929
0.0561904
0.0561879
0.0561853
0.0561828
0.0561803
0.0561778
0.0561753
0.0561728
0.0561702
0.0561677
0.0561652
0.0561627
0.0561602
0.0561577
0.0561551
0.0561526
0.0561501
0.0561476
0.0561451
0.0561425
0.05614
0.0561375
0.056135
0.0561325
0.0561299
0.0561274
0.0561249
0.0561224
0.0561198
0.0561173
0.0561148
0.0561123
0.0561098
0.0561072
0.0561047
0.0561022
0.0560997
0.0560971
0.0560946
0.0560921
0.0560896
0.056087
0.0560845
0.056082
0.0560795
0.0560769
0.0560744
0.0560719
0.0560694
0.0560668
0.0560643
0.0560618
0.0560593
0.0560567
0.0560542
0.0560517
0.0560492
0.0560466
0.0560441
0.0560416
0.056039
0.0560365
0.056034
0.0560315
0.0560289
0.0560264
0.0560239
0.0560213
0.0560188
0.0560163
0.0560137
0.0560112
0.0560087
0.0560062
0.0560036
0.0560011
0.0559986
0.055996
0.0559935
0.055991
0.0559884
0.0559859
0.0559834
0.0559808
0.0559783
0.0559758
0.0559732
0.0559707
0.0559682
0.0559656
0.0559631
0.0559606
0.055958
0.0559555
0.055953
0.0559504
0.0559479
0.0559453
0.0559428
0.0559403
0.0559377
0.0559352
0.0559327
0.0559301
0.0559276
0.055925
0.0559225
0.05592
0.0559174
0.0559149
0.0559124
0.0559098
0.0559073
0.0559047
0.0559022
0.0558997
0.0558971
0.0558946
0.055892
0.0558895
0.055887
0.0558844
0.0558819
0.0558793
0.0558768
0.0558742
0.0558717
0.0558692
0.0558666
0.0558641
0.0558615
0.055859
0.0558564
0.0558539
0.0558514
0.0558488
0.0558463
0.0558437
0.0558412
0.0558386
0.0558361
0.0558335
0.055831
0.0558285
0.0558259
0.0558234
0.0558208
0.0558183
0.0558157
0.0558132
0.0558106
0.0558081
0.0558055
0.055803
0.0558004
0.0557979
0.0557953
0.0557928
0.0557902
0.0557877
0.0557851
0.0557826
0.05578
0.0557775
0.0557749
0.0557724
0.0557698
0.0557673
0.0557647
0.0557622
0.0557596
0.0557571
0.0557545
0.055752
0.0557494
0.0557469
0.0557443
0.0557418
0.0557392
0.0557367
0.0557341
0.0557315
0.055729
0.0557264
0.0557239
0.0557213
0.0557188
0.0557162
0.0557137
0.0557111
0.0557086
0.055706
0.0557034
0.0557009
0.0556983
0.0556958
0.0556932
0.0556907
0.0556881
0.0556855
0.055683
0.0556804
0.0556779
0.0556753
0.0556727
0.0556702
0.0556676
0.0556651
0.0556625
0.0556599
0.0556574
0.0556548
0.0556523
0.0556497
0.0556471
0.0556446
0.055642
0.0556395
0.0556369
0.0556343
0.0556318
0.0556292
0.0556266
0.0556241
0.0556215
0.055619
0.0556164
0.0556138
0.0556113
0.0556087
0.0556061
0.0556036
0.055601
0.0555984
0.0555959
0.0555933
0.0555907
0.0555882
0.0555856
0.055583
0.0555805
0.0555779
0.0555753
0.0555728
0.0555702
0.0555676
0.0555651
0.0555625
0.0555599
0.0555574
0.0555548
0.0555522
0.0555497
0.0555471
0.0555445
0.0555419
0.0555394
0.0555368
0.0555342
0.0555317
0.0555291
0.0555265
0.055524
0.0555214
0.0555188
0.0555162
0.0555137
0.0555111
0.0555085
0.0555059
0.0555034
0.0555008
0.0554982
0.0554957
0.0554931
0.0554905
0.0554879
0.0554854
0.0554828
0.0554802
0.0554776
0.0554751
0.0554725
0.0554699
0.0554673
0.0554647
0.0554622
0.0554596
0.055457
0.0554544
0.0554519
0.0554493
0.0554467
0.0554441
0.0554415
0.055439
0.0554364
0.0554338
0.0554312
0.0554287
0.0554261
0.0554235
0.0554209
0.0554183
0.0554158
0.0554132
0.0554106
0.055408
0.0554054
0.0554028
0.0554003
0.0553977
0.0553951
0.0553925
0.0553899
0.0553873
0.0553848
0.0553822
0.0553796
0.055377
0.0553744
0.0553718
0.0553693
0.0553667
0.0553641
0.0553615
0.0553589
0.0553563
0.0553537
0.0553512
0.0553486
0.055346
0.0553434
0.0553408
0.0553382
0.0553356
0.0553331
0.0553305
0.0553279
0.0553253
0.0553227
0.0553201
0.0553175
0.0553149
0.0553123
0.0553098
0.0553072
0.0553046
0.055302
0.0552994
0.0552968
0.0552942
0.0552916
0.055289
0.0552864
0.0552838
0.0552812
0.0552787
0.0552761
0.0552735
0.0552709
0.0552683
0.0552657
0.0552631
0.0552605
0.0552579
0.0552553
0.0552527
0.0552501
0.0552475
0.0552449
0.0552423
0.0552397
0.0552371
0.0552346
0.055232
0.0552294
0.0552268
0.0552242
0.0552216
0.055219
0.0552164
0.0552138
0.0552112
0.0552086
0.055206
0.0552034
0.0552008
0.0551982
0.0551956
0.055193
0.0551904
0.0551878
0.0551852
0.0551826
0.05518
0.0551774
0.0551748
0.0551722
0.0551696
0.055167
0.0551644
0.0551618
0.0551592
0.0551566
0.055154
0.0551514
0.0551488
0.0551462
0.0551435
0.0551409
0.0551383
0.0551357
0.0551331
0.0551305
0.0551279
0.0551253
0.0551227
0.0551201
0.0551175
0.0551149
0.0551123
0.0551097
0.0551071
0.0551045
0.0551019
0.0550992
0.0550966
0.055094
0.0550914
0.0550888
0.0550862
0.0550836
0.055081
0.0550784
0.0550758
0.0550732
0.0550705
0.0550679
0.0550653
0.0550627
0.0550601
0.0550575
0.0550549
0.0550523
0.0550497
0.055047
0.0550444
0.0550418
0.0550392
0.0550366
0.055034
0.0550314
0.0550288
0.0550261
0.0550235
0.0550209
0.0550183
0.0550157
0.0550131
0.0550104
0.0550078
0.0550052
0.0550026
0.055
0.0549974
0.0549948
0.0549921
0.0549895
0.0549869
0.0549843
0.0549817
0.054979
0.0549764
0.0549738
0.0549712
0.0549686
0.054966
0.0549633
0.0549607
0.0549581
0.0549555
0.0549529
0.0549502
0.0549476
0.054945
0.0549424
0.0549397
0.0549371
0.0549345
0.0549319
0.0549293
0.0549266
0.054924
0.0549214
0.0549188
0.0549161
0.0549135
0.0549109
0.0549083
0.0549056
0.054903
0.0549004
0.0548978
0.0548951
0.0548925
0.0548899
0.0548873
0.0548846
0.054882
0.0548794
0.0548768
0.0548741
0.0548715
0.0548689
0.0548663
0.0548636
0.054861
0.0548584
0.0548557
0.0548531
0.0548505
0.0548479
0.0548452
0.0548426
0.05484
0.0548373
0.0548347
0.0548321
0.0548294
0.0548268
0.0548242
0.0548215
0.0548189
0.0548163
0.0548136
0.054811
0.0548084
0.0548058
0.0548031
0.0548005
0.0547979
0.0547952
0.0547926
0.0547899
0.0547873
0.0547847
0.054782
0.0547794
0.0547768
0.0547741
0.0547715
0.0547689
0.0547662
0.0547636
0.054761
0.0547583
0.0547557
0.054753
0.0547504
0.0547478
0.0547451
0.0547425
0.0547398
0.0547372
0.0547346
0.0547319
0.0547293
0.0547267
0.054724
0.0547214
0.0547187
0.0547161
0.0547134
0.0547108
0.0547082
0.0547055
0.0547029
0.0547002
0.0546976
0.054695
0.0546923
0.0546897
0.054687
0.0546844
0.0546817
0.0546791
0.0546764
0.0546738
0.0546712
0.0546685
0.0546659
0.0546632
0.0546606
0.0546579
0.0546553
0.0546526
0.05465
0.0546473
0.0546447
0.0546421
0.0546394
0.0546368
0.0546341
0.0546315
0.0546288
0.0546262
0.0546235
0.0546209
0.0546182
0.0546156
0.0546129
0.0546103
0.0546076
0.054605
0.0546023
0.0545997
0.054597
0.0545944
0.0545917
0.0545891
0.0545864
0.0545838
0.0545811
0.0545784
0.0545758
0.0545731
0.0545705
0.0545678
0.0545652
0.0545625
0.0545599
0.0545572
0.0545546
0.0545519
0.0545492
0.0545466
0.0545439
0.0545413
0.0545386
0.054536
0.0545333
0.0545307
0.054528
0.0545253
0.0545227
0.05452
0.0545174
0.0545147
0.054512
0.0545094
0.0545067
0.0545041
0.0545014
0.0544988
0.0544961
0.0544934
0.0544908
0.0544881
0.0544854
0.0544828
0.0544801
0.0544775
0.0544748
0.0544721
0.0544695
0.0544668
0.0544642
0.0544615
0.0544588
0.0544562
0.0544535
0.0544508
0.0544482
0.0544455
0.0544428
0.0544402
0.0544375
0.0544348
0.0544322
0.0544295
0.0544268
0.0544242
0.0544215
0.0544188
0.0544162
0.0544135
0.0544108
0.0544082
0.0544055
0.0544028
0.0544002
0.0543975
0.0543948
0.0543922
0.0543895
0.0543868
0.0543842
0.0543815
0.0543788
0.0543761
0.0543735
0.0543708
0.0543681
0.0543655
0.0543628
0.0543601
0.0543574
0.0543548
0.0543521
0.0543494
0.0543468
0.0543441
0.0543414
0.0543387
0.0543361
0.0543334
0.0543307
0.054328
0.0543254
0.0543227
0.05432
0.0543173
0.0543147
0.054312
0.0543093
0.0543066
0.0543039
0.0543013
0.0542986
0.0542959
0.0542932
0.0542906
0.0542879
0.0542852
0.0542825
0.0542798
0.0542772
0.0542745
0.0542718
0.0542691
0.0542664
0.0542638
0.0542611
0.0542584
0.0542557
0.054253
0.0542504
0.0542477
0.054245
0.0542423
0.0542396
0.0542369
0.0542343
0.0542316
0.0542289
0.0542262
0.0542235
0.0542208
0.0542182
0.0542155
0.0542128
0.0542101
0.0542074
0.0542047
0.054202
0.0541994
0.0541967
0.054194
0.0541913
0.0541886
0.0541859
0.0541832
0.0541805
0.0541779
0.0541752
0.0541725
0.0541698
0.0541671
0.0541644
0.0541617
0.054159
0.0541563
0.0541537
0.054151
0.0541483
0.0541456
0.0541429
0.0541402
0.0541375
0.0541348
0.0541321
0.0541294
0.0541267
0.054124
0.0541214
0.0541187
0.054116
0.0541133
0.0541106
0.0541079
0.0541052
0.0541025
0.0540998
0.0540971
0.0540944
0.0540917
0.054089
0.0540863
0.0540836
0.0540809
0.0540782
0.0540755
0.0540728
0.0540701
0.0540674
0.0540647
0.054062
0.0540593
0.0540566
0.0540539
0.0540512
0.0540485
0.0540458
0.0540431
0.0540404
0.0540377
0.054035
0.0540323
0.0540296
0.0540269
0.0540242
0.0540215
0.0540188
0.0540161
0.0540134
0.0540107
0.054008
0.0540053
0.0540026
0.0539999
0.0539972
0.0539945
0.0539918
0.0539891
0.0539864
0.0539837
0.053981
0.0539783
0.0539756
0.0539729
0.0539701
0.0539674
0.0539647
0.053962
0.0539593
0.0539566
0.0539539
0.0539512
0.0539485
0.0539458
0.0539431
0.0539404
0.0539376
0.0539349
0.0539322
0.0539295
0.0539268
0.0539241
0.0539214
0.0539187
0.053916
0.0539132
0.0539105
0.0539078
0.0539051
0.0539024
0.0538997
0.053897
0.0538943
0.0538915
0.0538888
0.0538861
0.0538834
0.0538807
0.053878
0.0538753
0.0538725
0.0538698
0.0538671
0.0538644
0.0538617
0.053859
0.0538562
0.0538535
0.0538508
0.0538481
0.0538454
0.0538427
0.0538399
0.0538372
0.0538345
0.0538318
0.0538291
0.0538263
0.0538236
0.0538209
0.0538182
0.0538155
0.0538127
0.05381
0.0538073
0.0538046
0.0538019
0.0537991
0.0537964
0.0537937
0.053791
0.0537882
0.0537855
0.0537828
0.0537801
0.0537773
0.0537746
0.0537719
0.0537692
0.0537664
0.0537637
0.053761
0.0537583
0.0537555
0.0537528
0.0537501
0.0537474
0.0537446
0.0537419
0.0537392
0.0537365
0.0537337
0.053731
0.0537283
0.0537255
0.0537228
0.0537201
0.0537174
0.0537146
0.0537119
0.0537092
0.0537064
0.0537037
0.053701
0.0536982
0.0536955
0.0536928
0.05369
0.0536873
0.0536846
0.0536818
0.0536791
0.0536764
0.0536736
0.0536709
0.0536682
0.0536654
0.0536627
0.05366
0.0536572
0.0536545
0.0536518
0.053649
0.0536463
0.0536436
0.0536408
0.0536381
0.0536354
0.0536326
0.0536299
0.0536271
0.0536244
0.0536217
0.0536189
0.0536162
0.0536135
0.0536107
0.053608
0.0536052
0.0536025
0.0535998
0.053597
0.0535943
0.0535915
0.0535888
0.053586
0.0535833
0.0535806
0.0535778
0.0535751
0.0535723
0.0535696
0.0535669
0.0535641
0.0535614
0.0535586
0.0535559
0.0535531
0.0535504
0.0535476
0.0535449
0.0535422
0.0535394
0.0535367
0.0535339
0.0535312
0.0535284
0.0535257
0.0535229
0.0535202
0.0535174
0.0535147
0.0535119
0.0535092
0.0535064
0.0535037
0.0535009
0.0534982
0.0534954
0.0534927
0.0534899
0.0534872
0.0534844
0.0534817
0.0534789
0.0534762
0.0534734
0.0534707
0.0534679
0.0534652
0.0534624
0.0534597
0.0534569
0.0534542
0.0534514
0.0534487
0.0534459
0.0534432
0.0534404
0.0534376
0.0534349
0.0534321
0.0534294
0.0534266
0.0534239
0.0534211
0.0534184
0.0534156
0.0534128
0.0534101
0.0534073
0.0534046
0.0534018
0.0533991
0.0533963
0.0533935
0.0533908
0.053388
0.0533853
0.0533825
0.0533797
0.053377
0.0533742
0.0533715
0.0533687
0.0533659
0.0533632
0.0533604
0.0533576
0.0533549
0.0533521
0.0533494
0.0533466
0.0533438
0.0533411
0.0533383
0.0533355
0.0533328
0.05333
0.0533272
0.0533245
0.0533217
0.0533189
0.0533162
0.0533134
0.0533106
0.0533079
0.0533051
0.0533023
0.0532996
0.0532968
0.053294
0.0532913
0.0532885
0.0532857
0.053283
0.0532802
0.0532774
0.0532747
0.0532719
0.0532691
0.0532664
0.0532636
0.0532608
0.053258
0.0532553
0.0532525
0.0532497
0.0532469
0.0532442
0.0532414
0.0532386
0.0532359
0.0532331
0.0532303
0.0532275
0.0532248
0.053222
0.0532192
0.0532164
0.0532137
0.0532109
0.0532081
0.0532053
0.0532026
0.0531998
0.053197
0.0531942
0.0531914
0.0531887
0.0531859
0.0531831
0.0531803
0.0531776
0.0531748
0.053172
0.0531692
0.0531664
0.0531637
0.0531609
0.0531581
0.0531553
0.0531525
0.0531498
0.053147
0.0531442
0.0531414
0.0531386
0.0531358
0.0531331
0.0531303
0.0531275
0.0531247
0.0531219
0.0531191
0.0531164
0.0531136
0.0531108
0.053108
0.0531052
0.0531024
0.0530996
0.0530969
0.0530941
0.0530913
0.0530885
0.0530857
0.0530829
0.0530801
0.0530774
0.0530746
0.0530718
0.053069
0.0530662
0.0530634
0.0530606
0.0530578
0.053055
0.0530522
0.0530495
0.0530467
0.0530439
0.0530411
0.0530383
0.0530355
0.0530327
0.0530299
0.0530271
0.0530243
0.0530215
0.0530187
0.053016
0.0530132
0.0530104
0.0530076
0.0530048
0.053002
0.0529992
0.0529964
0.0529936
0.0529908
0.052988
0.0529852
0.0529824
0.0529796
0.0529768
0.052974
0.0529712
0.0529684
0.0529656
0.0529628
0.05296
0.0529572
0.0529544
0.0529516
0.0529488
0.052946
0.0529432
0.0529404
0.0529376
0.0529348
0.052932
0.0529292
0.0529264
0.0529236
0.0529208
0.052918
0.0529152
0.0529124
0.0529096
0.0529068
0.052904
0.0529012
0.0528984
0.0528956
0.0528928
0.05289
0.0528872
0.0528844
0.0528815
0.0528787
0.0528759
0.0528731
0.0528703
0.0528675
0.0528647
0.0528619
0.0528591
0.0528563
0.0528535
0.0528507
0.0528479
0.052845
0.0528422
0.0528394
0.0528366
0.0528338
0.052831
0.0528282
0.0528254
0.0528226
0.0528197
0.0528169
0.0528141
0.0528113
0.0528085
0.0528057
0.0528029
0.0528001
0.0527972
0.0527944
0.0527916
0.0527888
0.052786
0.0527832
0.0527803
0.0527775
0.0527747
0.0527719
0.0527691
0.0527663
0.0527634
0.0527606
0.0527578
0.052755
0.0527522
0.0527494
0.0527465
0.0527437
0.0527409
0.0527381
0.0527353
0.0527324
0.0527296
0.0527268
0.052724
0.0527212
0.0527183
0.0527155
0.0527127
0.0527099
0.052707
0.0527042
0.0527014
0.0526986
0.0526958
0.0526929
0.0526901
0.0526873
0.0526845
0.0526816
0.0526788
0.052676
0.0526732
0.0526703
0.0526675
0.0526647
0.0526619
0.052659
0.0526562
0.0526534
0.0526505
0.0526477
0.0526449
0.0526421
0.0526392
0.0526364
0.0526336
0.0526307
0.0526279
0.0526251
0.0526222
0.0526194
0.0526166
0.0526138
0.0526109
0.0526081
0.0526053
0.0526024
0.0525996
0.0525968
0.0525939
0.0525911
0.0525883
0.0525854
0.0525826
0.0525798
0.0525769
0.0525741
0.0525713
0.0525684
0.0525656
0.0525627
0.0525599
0.0525571
0.0525542
0.0525514
0.0525486
0.0525457
0.0525429
0.05254
0.0525372
0.0525344
0.0525315
0.0525287
0.0525259
0.052523
0.0525202
0.0525173
0.0525145
0.0525116
0.0525088
0.052506
0.0525031
0.0525003
0.0524974
0.0524946
0.0524918
0.0524889
0.0524861
0.0524832
0.0524804
0.0524775
0.0524747
0.0524718
0.052469
0.0524662
0.0524633
0.0524605
0.0524576
0.0524548
0.0524519
0.0524491
0.0524462
0.0524434
0.0524405
0.0524377
0.0524348
0.052432
0.0524291
0.0524263
0.0524234
0.0524206
0.0524177
0.0524149
0.052412
0.0524092
0.0524063
0.0524035
0.0524006
0.0523978
0.0523949
0.0523921
0.0523892
0.0523864
0.0523835
0.0523807
0.0523778
0.052375
0.0523721
0.0523693
0.0523664
0.0523635
0.0523607
0.0523578
0.052355
0.0523521
0.0523493
0.0523464
0.0523436
0.0523407
0.0523378
0.052335
0.0523321
0.0523293
0.0523264
0.0523235
0.0523207
0.0523178
0.052315
0.0523121
0.0523093
0.0523064
0.0523035
0.0523007
0.0522978
0.0522949
0.0522921
0.0522892
0.0522864
0.0522835
0.0522806
0.0522778
0.0522749
0.052272
0.0522692
0.0522663
0.0522634
0.0522606
0.0522577
0.0522549
0.052252
0.0522491
0.0522463
0.0522434
0.0522405
0.0522377
0.0522348
0.0522319
0.0522291
0.0522262
0.0522233
0.0522204
0.0522176
0.0522147
0.0522118
0.052209
0.0522061
0.0522032
0.0522004
0.0521975
0.0521946
0.0521917
0.0521889
0.052186
0.0521831
0.0521803
0.0521774
0.0521745
0.0521716
0.0521688
0.0521659
0.052163
0.0521601
0.0521573
0.0521544
0.0521515
0.0521486
0.0521458
0.0521429
0.05214
0.0521371
0.0521343
0.0521314
0.0521285
0.0521256
0.0521227
0.0521199
0.052117
0.0521141
0.0521112
0.0521084
0.0521055
0.0521026
0.0520997
0.0520968
0.052094
0.0520911
0.0520882
0.0520853
0.0520824
0.0520795
0.0520767
0.0520738
0.0520709
0.052068
0.0520651
0.0520622
0.0520594
0.0520565
0.0520536
0.0520507
0.0520478
0.0520449
0.0520421
0.0520392
0.0520363
0.0520334
0.0520305
0.0520276
0.0520247
0.0520218
0.052019
0.0520161
0.0520132
0.0520103
0.0520074
0.0520045
0.0520016
0.0519987
0.0519958
0.0519929
0.0519901
0.0519872
0.0519843
0.0519814
0.0519785
0.0519756
0.0519727
0.0519698
0.0519669
0.051964
0.0519611
0.0519582
0.0519553
0.0519525
0.0519496
0.0519467
0.0519438
0.0519409
0.051938
0.0519351
0.0519322
0.0519293
0.0519264
0.0519235
0.0519206
0.0519177
0.0519148
0.0519119
0.051909
0.0519061
0.0519032
0.0519003
0.0518974
0.0518945
0.0518916
0.0518887
0.0518858
0.0518829
0.05188
0.0518771
0.0518742
0.0518713
0.0518684
0.0518655
0.0518626
0.0518597
0.0518568
0.0518539
0.051851
0.0518481
0.0518452
0.0518423
0.0518393
0.0518364
0.0518335
0.0518306
0.0518277
0.0518248
0.0518219
0.051819
0.0518161
0.0518132
0.0518103
0.0518074
0.0518045
0.0518015
0.0517986
0.0517957
0.0517928
0.0517899
0.051787
0.0517841
0.0517812
0.0517783
0.0517754
0.0517724
0.0517695
0.0517666
0.0517637
0.0517608
0.0517579
0.051755
0.0517521
0.0517491
0.0517462
0.0517433
0.0517404
0.0517375
0.0517346
0.0517316
0.0517287
0.0517258
0.0517229
0.05172
0.0517171
0.0517141
0.0517112
0.0517083
0.0517054
0.0517025
0.0516996
0.0516966
0.0516937
0.0516908
0.0516879
0.051685
0.051682
0.0516791
0.0516762
0.0516733
0.0516703
0.0516674
0.0516645
0.0516616
0.0516587
0.0516557
0.0516528
0.0516499
0.051647
0.051644
0.0516411
0.0516382
0.0516353
0.0516323
0.0516294
0.0516265
0.0516236
0.0516206
0.0516177
0.0516148
0.0516118
0.0516089
0.051606
0.0516031
0.0516001
0.0515972
0.0515943
0.0515913
0.0515884
0.0515855
0.0515826
0.0515796
0.0515767
0.0515738
0.0515708
0.0515679
0.051565
0.051562
0.0515591
0.0515562
0.0515532
0.0515503
0.0515474
0.0515444
0.0515415
0.0515386
0.0515356
0.0515327
0.0515298
0.0515268
0.0515239
0.0515209
0.051518
0.0515151
0.0515121
0.0515092
0.0515063
0.0515033
0.0515004
0.0514974
0.0514945
0.0514916
0.0514886
0.0514857
0.0514827
0.0514798
0.0514769
0.0514739
0.051471
0.051468
0.0514651
0.0514621
0.0514592
0.0514563
0.0514533
0.0514504
0.0514474
0.0514445
0.0514415
0.0514386
0.0514357
0.0514327
0.0514298
0.0514268
0.0514239
0.0514209
0.051418
0.051415
0.0514121
0.0514091
0.0514062
0.0514032
0.0514003
0.0513973
0.0513944
0.0513914
0.0513885
0.0513855
0.0513826
0.0513796
0.0513767
0.0513737
0.0513708
0.0513678
0.0513649
0.0513619
0.051359
0.051356
0.0513531
0.0513501
0.0513472
0.0513442
0.0513413
0.0513383
0.0513353
0.0513324
0.0513294
0.0513265
0.0513235
0.0513206
0.0513176
0.0513147
0.0513117
0.0513087
0.0513058
0.0513028
0.0512999
0.0512969
0.0512939
0.051291
0.051288
0.0512851
0.0512821
0.0512791
0.0512762
0.0512732
0.0512703
0.0512673
0.0512643
0.0512614
0.0512584
0.0512555
0.0512525
0.0512495
0.0512466
0.0512436
0.0512406
0.0512377
0.0512347
0.0512317
0.0512288
0.0512258
0.0512228
0.0512199
0.0512169
0.0512139
0.051211
0.051208
0.051205
0.0512021
0.0511991
0.0511961
0.0511932
0.0511902
0.0511872
0.0511843
0.0511813
0.0511783
0.0511753
0.0511724
0.0511694
0.0511664
0.0511635
0.0511605
0.0511575
0.0511545
0.0511516
0.0511486
0.0511456
0.0511426
0.0511397
0.0511367
0.0511337
0.0511307
0.0511278
0.0511248
0.0511218
0.0511188
0.0511159
0.0511129
0.0511099
0.0511069
0.051104
0.051101
0.051098
0.051095
0.051092
0.0510891
0.0510861
0.0510831
0.0510801
0.0510771
0.0510742
0.0510712
0.0510682
0.0510652
0.0510622
0.0510592
0.0510563
0.0510533
0.0510503
0.0510473
0.0510443
0.0510413
0.0510384
0.0510354
0.0510324
0.0510294
0.0510264
0.0510234
0.0510204
0.0510175
0.0510145
0.0510115
0.0510085
0.0510055
0.0510025
0.0509995
0.0509965
0.0509936
0.0509906
0.0509876
0.0509846
0.0509816
0.0509786
0.0509756
0.0509726
0.0509696
0.0509666
0.0509636
0.0509607
0.0509577
0.0509547
0.0509517
0.0509487
0.0509457
0.0509427
0.0509397
0.0509367
0.0509337
0.0509307
0.0509277
0.0509247
0.0509217
0.0509187
0.0509157
0.0509127
0.0509097
0.0509067
0.0509037
0.0509007
0.0508977
0.0508947
0.0508917
0.0508887
0.0508857
0.0508827
0.0508797
0.0508767
0.0508737
0.0508707
0.0508677
0.0508647
0.0508617
0.0508587
0.0508557
0.0508527
0.0508497
0.0508467
0.0508437
0.0508407
0.0508377
0.0508347
0.0508317
0.0508287
0.0508257
0.0508227
0.0508197
0.0508167
0.0508137
0.0508106
0.0508076
0.0508046
0.0508016
0.0507986
0.0507956
0.0507926
0.0507896
0.0507866
0.0507836
0.0507806
0.0507775
0.0507745
0.0507715
0.0507685
0.0507655
0.0507625
0.0507595
0.0507565
0.0507534
0.0507504
0.0507474
0.0507444
0.0507414
0.0507384
0.0507354
0.0507323
0.0507293
0.0507263
0.0507233
0.0507203
0.0507173
0.0507142
0.0507112
0.0507082
0.0507052
0.0507022
0.0506992
0.0506961
0.0506931
0.0506901
0.0506871
0.0506841
0.050681
0.050678
0.050675
0.050672
0.0506689
0.0506659
0.0506629
0.0506599
0.0506569
0.0506538
0.0506508
0.0506478
0.0506448
0.0506417
0.0506387
0.0506357
0.0506327
0.0506296
0.0506266
0.0506236
0.0506206
0.0506175
0.0506145
0.0506115
0.0506084
0.0506054
0.0506024
0.0505994
0.0505963
0.0505933
0.0505903
0.0505872
0.0505842
0.0505812
0.0505781
0.0505751
0.0505721
0.050569
0.050566
0.050563
0.05056
0.0505569
0.0505539
0.0505508
0.0505478
0.0505448
0.0505417
0.0505387
0.0505357
0.0505326
0.0505296
0.0505266
0.0505235
0.0505205
0.0505175
0.0505144
0.0505114
0.0505083
0.0505053
0.0505023
0.0504992
0.0504962
0.0504931
0.0504901
0.0504871
0.050484
0.050481
0.0504779
0.0504749
0.0504719
0.0504688
0.0504658
0.0504627
0.0504597
0.0504566
0.0504536
0.0504506
0.0504475
0.0504445
0.0504414
0.0504384
0.0504353
0.0504323
0.0504292
0.0504262
0.0504231
0.0504201
0.050417
0.050414
0.0504109
0.0504079
0.0504048
0.0504018
0.0503988
0.0503957
0.0503926
0.0503896
0.0503865
0.0503835
0.0503804
0.0503774
0.0503743
0.0503713
0.0503682
0.0503652
0.0503621
0.0503591
0.050356
0.050353
0.0503499
0.0503469
0.0503438
0.0503407
0.0503377
0.0503346
0.0503316
0.0503285
0.0503255
0.0503224
0.0503193
0.0503163
0.0503132
0.0503102
0.0503071
0.0503041
0.050301
0.0502979
0.0502949
0.0502918
0.0502888
0.0502857
0.0502826
0.0502796
0.0502765
0.0502734
0.0502704
0.0502673
0.0502643
0.0502612
0.0502581
0.0502551
0.050252
0.0502489
0.0502459
0.0502428
0.0502397
0.0502367
0.0502336
0.0502305
0.0502275
0.0502244
0.0502213
0.0502183
0.0502152
0.0502121
0.0502091
0.050206
0.0502029
0.0501998
0.0501968
0.0501937
0.0501906
0.0501876
0.0501845
0.0501814
0.0501783
0.0501753
0.0501722
0.0501691
0.0501661
0.050163
0.0501599
0.0501568
0.0501538
0.0501507
0.0501476
0.0501445
0.0501414
0.0501384
0.0501353
0.0501322
0.0501291
0.0501261
0.050123
0.0501199
0.0501168
0.0501137
0.0501107
0.0501076
0.0501045
0.0501014
0.0500983
0.0500953
0.0500922
0.0500891
0.050086
0.0500829
0.0500799
0.0500768
0.0500737
0.0500706
0.0500675
0.0500644
0.0500614
0.0500583
0.0500552
0.0500521
0.050049
0.0500459
0.0500428
0.0500398
0.0500367
0.0500336
0.0500305
0.0500274
0.0500243
0.0500212
0.0500181
0.050015
0.050012
0.0500089
0.0500058
0.0500027
0.0499996
0.0499965
0.0499934
0.0499903
0.0499872
0.0499841
0.049981
0.0499779
0.0499749
0.0499718
0.0499687
0.0499656
0.0499625
0.0499594
0.0499563
0.0499532
0.0499501
0.049947
0.0499439
0.0499408
0.0499377
0.0499346
0.0499315
0.0499284
0.0499253
0.0499222
0.0499191
0.049916
0.0499129
0.0499098
0.0499067
0.0499036
0.0499005
0.0498974
0.0498943
0.0498912
0.0498881
0.049885
0.0498819
0.0498788
0.0498757
0.0498726
0.0498695
0.0498664
0.0498633