/*--------------------------------*- C++ -*----------------------------------*\
| =========                 |                                                 |
| \\      /  F ield         | OpenFOAM: The Open Source CFD Toolbox           |
|  \\    /   O peration     | Version:  2.3.0                                 |
|   \\  /    A nd           | Web:      www.OpenFOAM.org                      |
|    \\/     M anipulation  |                                                 |
\*---------------------------------------------------------------------------*/
FoamFile
{
    version     2.0;
    format      ascii;
    class       volVectorField;
    location    "1e-06";
    object      U;
}
// * * * * * * * * * * * * * * * * * * * * * * * * * * * * * * * * * * * * * //

dimensions      [0 1 -1 0 0 0 0];

internalField   nonuniform List<vector> 
10000
(
(0 0 -7.51805e-13)
(0 0 0)
(0 0 0)
(0 0 7.20552e-13)
(0 0 0)
(0 0 0)
(0 0 7.20655e-13)
(0 0 7.20689e-13)
(0 0 1.44145e-12)
(0 0 1.44151e-12)
(0 0 7.20791e-13)
(0 0 7.20825e-13)
(0 0 1.44172e-12)
(0 0 2.16268e-12)
(0 0 2.16278e-12)
(0 0 2.16289e-12)
(0 0 7.20996e-13)
(0 0 -7.21031e-13)
(0 0 -7.21065e-13)
(0 0 -2.1633e-12)
(0 0 -2.1634e-12)
(0 0 -1.44234e-12)
(0 0 -1.4424e-12)
(0 0 1.44247e-12)
(0 0 2.16381e-12)
(0 0 1.44261e-12)
(0 0 2.16402e-12)
(0 0 2.16412e-12)
(0 0 1.44282e-12)
(0 0 7.21442e-13)
(0 0 7.21476e-13)
(0 0 -1.44302e-12)
(0 0 -1.44309e-12)
(0 0 -1.44316e-12)
(0 0 0)
(0 0 -7.21648e-13)
(0 0 7.21682e-13)
(0 0 0)
(0 0 -7.21751e-13)
(0 0 0)
(0 0 1.44364e-12)
(0 0 7.21854e-13)
(0 0 2.88755e-12)
(0 0 3.60961e-12)
(0 0 3.60979e-12)
(0 0 2.88797e-12)
(0 0 3.61013e-12)
(0 0 5.77648e-12)
(0 0 5.77676e-12)
(0 0 6.49916e-12)
(0 0 5.77731e-12)
(0 0 6.49978e-12)
(0 0 5.77786e-12)
(0 0 7.22267e-12)
(0 0 7.22301e-12)
(0 0 7.22336e-12)
(0 0 7.94607e-12)
(0 0 8.66886e-12)
(0 0 1.01142e-11)
(0 0 1.15596e-11)
(0 0 1.30052e-11)
(0 0 1.44509e-11)
(0 0 1.3729e-11)
(0 0 1.37296e-11)
(0 0 1.37303e-11)
(0 0 1.44536e-11)
(0 0 1.5177e-11)
(0 0 1.51778e-11)
(0 0 1.59013e-11)
(0 0 1.44564e-11)
(0 0 1.44571e-11)
(0 0 1.44578e-11)
(0 0 1.59043e-11)
(0 0 1.59051e-11)
(0 0 1.66288e-11)
(0 0 1.80757e-11)
(0 0 1.80765e-11)
(0 0 1.88005e-11)
(0 0 1.80783e-11)
(0 0 1.95255e-11)
(0 0 1.88032e-11)
(0 0 1.95273e-11)
(0 0 2.09748e-11)
(0 0 2.16991e-11)
(0 0 2.17001e-11)
(0 0 2.09778e-11)
(0 0 1.9532e-11)
(0 0 1.88095e-11)
(0 0 1.88104e-11)
(0 0 1.73643e-11)
(0 0 1.51945e-11)
(0 0 1.44716e-11)
(0 0 1.37487e-11)
(0 0 1.30257e-11)
(0 0 1.23026e-11)
(0 0 1.15795e-11)
(0 0 1.15801e-11)
(0 0 1.01331e-11)
(0 0 1.15812e-11)
(0 0 1.15817e-11)
(0 0 1.15823e-11)
(0 0 1.15829e-11)
(0 0 1.08594e-11)
(0 0 9.41197e-12)
(0 0 1.08605e-11)
(0 0 1.15851e-11)
(0 0 1.08615e-11)
(0 0 1.30345e-11)
(0 0 1.30351e-11)
(0 0 1.30357e-11)
(0 0 1.30363e-11)
(0 0 1.23127e-11)
(0 0 1.30376e-11)
(0 0 1.15895e-11)
(0 0 1.23145e-11)
(0 0 1.15907e-11)
(0 0 1.23157e-11)
(0 0 1.30407e-11)
(0 0 1.30414e-11)
(0 0 1.37665e-11)
(0 0 1.37672e-11)
(0 0 1.37679e-11)
(0 0 1.44932e-11)
(0 0 1.59433e-11)
(0 0 1.44946e-11)
(0 0 1.44953e-11)
(0 0 1.52208e-11)
(0 0 1.37719e-11)
(0 0 1.30476e-11)
(0 0 1.15985e-11)
(0 0 1.1599e-11)
(0 0 1.23246e-11)
(0 0 1.16001e-11)
(0 0 1.16007e-11)
(0 0 1.30514e-11)
(0 0 1.23269e-11)
(0 0 1.16024e-11)
(0 0 1.16029e-11)
(0 0 1.23287e-11)
(0 0 1.16041e-11)
(0 0 1.16046e-11)
(0 0 1.16052e-11)
(0 0 1.0155e-11)
(0 0 1.01555e-11)
(0 0 7.97972e-12)
(0 0 6.52918e-12)
(0 0 5.804e-12)
(0 0 5.07874e-12)
(0 0 5.07899e-12)
(0 0 6.53044e-12)
(0 0 5.80512e-12)
(0 0 6.53107e-12)
(0 0 6.53139e-12)
(0 0 7.25745e-12)
(0 0 7.2578e-12)
(0 0 8.70978e-12)
(0 0 8.7102e-12)
(0 0 9.43651e-12)
(0 0 8.71105e-12)
(0 0 7.98551e-12)
(0 0 8.71189e-12)
(0 0 7.98629e-12)
(0 0 7.26061e-12)
(0 0 7.98706e-12)
(0 0 7.26132e-12)
(0 0 5.80933e-12)
(0 0 5.80962e-12)
(0 0 4.35742e-12)
(0 0 4.35763e-12)
(0 0 5.08415e-12)
(0 0 5.81074e-12)
(0 0 5.81102e-12)
(0 0 5.81131e-12)
(0 0 6.53804e-12)
(0 0 8.7178e-12)
(0 0 8.71823e-12)
(0 0 8.71865e-12)
(0 0 8.71907e-12)
(0 0 7.99287e-12)
(0 0 9.44658e-12)
(0 0 8.72034e-12)
(0 0 9.4475e-12)
(0 0 9.44796e-12)
(0 0 8.72161e-12)
(0 0 7.9952e-12)
(0 0 8.72246e-12)
(0 0 7.99598e-12)
(0 0 8.72331e-12)
(0 0 8.72373e-12)
(0 0 7.99714e-12)
(0 0 7.99753e-12)
(0 0 7.27084e-12)
(0 0 7.99831e-12)
(0 0 8.72585e-12)
(0 0 7.2719e-12)
(0 0 6.54503e-12)
(0 0 6.54535e-12)
(0 0 4.36378e-12)
(0 0 3.63666e-12)
(0 0 2.90947e-12)
(0 0 2.90961e-12)
(0 0 2.18231e-12)
(0 0 0)
(0 0 -1.45502e-12)
(0 0 -7.27544e-13)
(0 0 0)
(0 0 0)
(0 0 0)
(0 0 -7.27686e-13)
(0 0 -2.18316e-12)
(0 0 -1.45551e-12)
(0 0 0)
(0 0 -1.45566e-12)
(0 0 -1.45573e-12)
(0 0 -2.1837e-12)
(0 0 -2.1838e-12)
(0 0 -2.18391e-12)
(0 0 -1.45601e-12)
(0 0 -1.45608e-12)
(0 0 -7.28076e-13)
(0 0 -1.45622e-12)
(0 0 -2.18444e-12)
(0 0 0)
(0 0 -7.28219e-13)
(0 0 0)
(0 0 7.2829e-13)
(0 0 1.45665e-12)
(0 0 1.45672e-12)
(0 0 1.45679e-12)
(0 0 1.45686e-12)
(0 0 2.1854e-12)
(0 0 4.37102e-12)
(0 0 2.91416e-12)
(0 0 2.9143e-12)
(0 0 2.91444e-12)
(0 0 7.28646e-13)
(0 0 2.18605e-12)
(0 0 2.18615e-12)
(0 0 4.37252e-12)
(0 0 2.91515e-12)
(0 0 2.9153e-12)
(0 0 2.91544e-12)
(0 0 3.64448e-12)
(0 0 3.64466e-12)
(0 0 3.64484e-12)
(0 0 4.37402e-12)
(0 0 3.64519e-12)
(0 0 4.37445e-12)
(0 0 5.10377e-12)
(0 0 4.37487e-12)
(0 0 4.37509e-12)
(0 0 3.64609e-12)
(0 0 4.37552e-12)
(0 0 4.37573e-12)
(0 0 5.10527e-12)
(0 0 5.83488e-12)
(0 0 4.37638e-12)
(0 0 5.10602e-12)
(0 0 5.10627e-12)
(0 0 5.10653e-12)
(0 0 3.6477e-12)
(0 0 4.37745e-12)
(0 0 2.91844e-12)
(0 0 4.37788e-12)
(0 0 5.83746e-12)
(0 0 6.56747e-12)
(0 0 8.0273e-12)
(0 0 7.2979e-12)
(0 0 9.48774e-12)
(0 0 9.48821e-12)
(0 0 9.48867e-12)
(0 0 1.02191e-11)
(0 0 9.48961e-12)
(0 0 8.03006e-12)
(0 0 8.7605e-12)
(0 0 6.5707e-12)
(0 0 8.03125e-12)
(0 0 8.03164e-12)
(0 0 8.03204e-12)
(0 0 8.03243e-12)
(0 0 6.57232e-12)
(0 0 5.84235e-12)
(0 0 7.30329e-12)
(0 0 6.57329e-12)
(0 0 8.76481e-12)
(0 0 8.03481e-12)
(0 0 9.49615e-12)
(0 0 1.02271e-11)
(0 0 9.49709e-12)
(0 0 1.16893e-11)
(0 0 1.16899e-11)
(0 0 1.24211e-11)
(0 0 1.1691e-11)
(0 0 1.09609e-11)
(0 0 1.16922e-11)
(0 0 1.16928e-11)
(0 0 1.09625e-11)
(0 0 1.16939e-11)
(0 0 1.24254e-11)
(0 0 1.02332e-11)
(0 0 8.77173e-12)
(0 0 7.31014e-12)
(0 0 5.11735e-12)
(0 0 6.57978e-12)
(0 0 6.5801e-12)
(0 0 5.11811e-12)
(0 0 6.58075e-12)
(0 0 7.31231e-12)
(0 0 8.7752e-12)
(0 0 7.31303e-12)
(0 0 8.04473e-12)
(0 0 6.58238e-12)
(0 0 7.31411e-12)
(0 0 8.04592e-12)
(0 0 8.04632e-12)
(0 0 7.3152e-12)
(0 0 5.12089e-12)
(0 0 4.38955e-12)
(0 0 3.65814e-12)
(0 0 3.65832e-12)
(0 0 4.39021e-12)
(0 0 3.65869e-12)
(0 0 4.39064e-12)
(0 0 2.92724e-12)
(0 0 2.19554e-12)
(0 0 1.46376e-12)
(0 0 2.19576e-12)
(0 0 2.92782e-12)
(0 0 2.19597e-12)
(0 0 2.92811e-12)
(0 0 2.19619e-12)
(0 0 4.3926e-12)
(0 0 5.12495e-12)
(0 0 4.39304e-12)
(0 0 4.39325e-12)
(0 0 2.92898e-12)
(0 0 2.19685e-12)
(0 0 7.32318e-13)
(0 0 0)
(0 0 7.32391e-13)
(0 0 0)
(0 0 7.32464e-13)
(0 0 1.465e-12)
(0 0 7.32536e-13)
(0 0 -7.32573e-13)
(0 0 -1.46522e-12)
(0 0 -1.46529e-12)
(0 0 -7.32682e-13)
(0 0 -7.32718e-13)
(0 0 1.46551e-12)
(0 0 0)
(0 0 0)
(0 0 0)
(0 0 -7.32901e-13)
(0 0 -1.46587e-12)
(0 0 -2.19892e-12)
(0 0 -2.19903e-12)
(0 0 -2.93219e-12)
(0 0 -2.19925e-12)
(0 0 -2.19936e-12)
(0 0 -1.46631e-12)
(0 0 -2.19958e-12)
(0 0 -2.93292e-12)
(0 0 -2.1998e-12)
(0 0 -3.66651e-12)
(0 0 -3.66669e-12)
(0 0 -2.20013e-12)
(0 0 -2.93365e-12)
(0 0 -3.66724e-12)
(0 0 -2.93394e-12)
(0 0 -2.93409e-12)
(0 0 -1.46712e-12)
(0 0 -7.33595e-13)
(0 0 7.33631e-13)
(0 0 1.46734e-12)
(0 0 7.33705e-13)
(0 0 0)
(0 0 -7.33778e-13)
(0 0 -7.33814e-13)
(0 0 -7.33851e-13)
(0 0 -1.46778e-12)
(0 0 -4.40355e-12)
(0 0 -3.66981e-12)
(0 0 -1.468e-12)
(0 0 -2.2021e-12)
(0 0 -7.34071e-13)
(0 0 -7.34108e-13)
(0 0 -7.34145e-13)
(0 0 -1.46836e-12)
(0 0 -1.46844e-12)
(0 0 -1.46851e-12)
(0 0 -1.46858e-12)
(0 0 -7.34328e-13)
(0 0 -7.34365e-13)
(0 0 -7.34402e-13)
(0 0 0)
(0 0 0)
(0 0 7.34512e-13)
(0 0 7.34549e-13)
(0 0 0)
(0 0 0)
(0 0 0)
(0 0 0)
(0 0 0)
(0 0 7.3477e-13)
(0 0 7.34806e-13)
(0 0 7.34843e-13)
(0 0 7.3488e-13)
(0 0 7.34917e-13)
(0 0 0)
(0 0 7.34991e-13)
(0 0 7.35027e-13)
(0 0 0)
(0 0 1.4702e-12)
(0 0 2.20541e-12)
(0 0 2.20553e-12)
(0 0 2.94085e-12)
(0 0 1.4705e-12)
(0 0 7.35286e-13)
(0 0 1.47065e-12)
(0 0 7.3536e-13)
(0 0 7.35397e-13)
(0 0 1.47087e-12)
(0 0 7.3547e-13)
(0 0 7.35507e-13)
(0 0 2.20663e-12)
(0 0 2.94233e-12)
(0 0 2.94247e-12)
(0 0 2.20697e-12)
(0 0 2.20708e-12)
(0 0 1.47146e-12)
(0 0 1.47153e-12)
(0 0 1.47161e-12)
(0 0 1.47168e-12)
(0 0 2.94351e-12)
(0 0 2.20774e-12)
(0 0 2.94381e-12)
(0 0 2.20797e-12)
(0 0 1.47205e-12)
(0 0 7.36063e-13)
(0 0 0)
(0 0 -7.36137e-13)
(0 0 0)
(0 0 7.36211e-13)
(0 0 1.4725e-12)
(0 0 2.94514e-12)
(0 0 3.68161e-12)
(0 0 3.6818e-12)
(0 0 3.68198e-12)
(0 0 2.2093e-12)
(0 0 2.20941e-12)
(0 0 7.36508e-13)
(0 0 1.47309e-12)
(0 0 2.20975e-12)
(0 0 2.94648e-12)
(0 0 2.20997e-12)
(0 0 2.21008e-12)
(0 0 1.47346e-12)
(0 0 2.21031e-12)
(0 0 2.94722e-12)
(0 0 2.21053e-12)
(0 0 0)
(0 0 0)
(0 0 -7.36955e-13)
(0 0 -7.36992e-13)
(0 0 -1.47406e-12)
(0 0 -1.47413e-12)
(0 0 0)
(0 0 0)
(0 0 7.37178e-13)
(0 0 7.37216e-13)
(0 0 0)
(0 0 0)
(0 0 -7.37328e-13)
(0 0 -2.21209e-12)
(0 0 -1.4748e-12)
(0 0 -2.94976e-12)
(0 0 -2.94991e-12)
(0 0 -2.21254e-12)
(0 0 -2.95021e-12)
(0 0 -2.95036e-12)
(0 0 -2.21288e-12)
(0 0 -2.95066e-12)
(0 0 -2.2131e-12)
(0 0 -2.21322e-12)
(0 0 -2.21333e-12)
(0 0 -2.21344e-12)
(0 0 -1.4757e-12)
(0 0 -1.47578e-12)
(0 0 -2.21378e-12)
(0 0 -4.42778e-12)
(0 0 -4.428e-12)
(0 0 -5.16627e-12)
(0 0 -5.9046e-12)
(0 0 -3.69057e-12)
(0 0 -5.9052e-12)
(0 0 -5.9055e-12)
(0 0 -5.16758e-12)
(0 0 -7.38263e-12)
(0 0 -6.6447e-12)
(0 0 -8.86006e-12)
(0 0 -1.10756e-11)
(0 0 -1.10762e-11)
(0 0 -9.59986e-12)
(0 0 -8.86186e-12)
(0 0 -6.64673e-12)
(0 0 -8.86276e-12)
(0 0 -8.12461e-12)
(0 0 -1.10796e-11)
(0 0 -1.32962e-11)
(0 0 -1.25581e-11)
(0 0 -1.25588e-11)
(0 0 -1.0343e-11)
(0 0 -9.60474e-12)
(0 0 -1.1083e-11)
(0 0 -1.03446e-11)
(0 0 -1.03452e-11)
(0 0 -8.86772e-12)
(0 0 -9.60719e-12)
(0 0 -8.86863e-12)
(0 0 -8.12999e-12)
(0 0 -7.39128e-12)
(0 0 -8.13082e-12)
(0 0 -8.13123e-12)
(0 0 -6.65317e-12)
(0 0 -7.39278e-12)
(0 0 -7.39316e-12)
(0 0 -7.39354e-12)
(0 0 -6.65452e-12)
(0 0 -5.176e-12)
(0 0 -5.91574e-12)
(0 0 -6.65554e-12)
(0 0 -7.39542e-12)
(0 0 -7.3958e-12)
(0 0 -8.87542e-12)
(0 0 -8.87587e-12)
(0 0 -8.13663e-12)
(0 0 -7.39731e-12)
(0 0 -5.17838e-12)
(0 0 -5.17865e-12)
(0 0 -5.17891e-12)
(0 0 -5.17918e-12)
(0 0 -5.17944e-12)
(0 0 -5.17971e-12)
(0 0 -3.69998e-12)
(0 0 -4.4402e-12)
(0 0 -3.70036e-12)
(0 0 -3.70055e-12)
(0 0 -4.44089e-12)
(0 0 -5.1813e-12)
(0 0 -6.66201e-12)
(0 0 -6.66235e-12)
(0 0 -6.66269e-12)
(0 0 -8.14371e-12)
(0 0 -8.14412e-12)
(0 0 -8.14454e-12)
(0 0 -8.88541e-12)
(0 0 -8.88587e-12)
(0 0 -8.14579e-12)
(0 0 -7.40565e-12)
(0 0 -6.66542e-12)
(0 0 -5.92512e-12)
(0 0 -5.18475e-12)
(0 0 -5.92573e-12)
(0 0 -5.18528e-12)
(0 0 -5.18555e-12)
(0 0 -5.18581e-12)
(0 0 -6.66782e-12)
(0 0 -6.66816e-12)
(0 0 -7.40945e-12)
(0 0 -7.40983e-12)
(0 0 -9.63327e-12)
(0 0 -8.89271e-12)
(0 0 -9.63426e-12)
(0 0 -1.1117e-11)
(0 0 -9.63525e-12)
(0 0 -1.0377e-11)
(0 0 -9.63624e-12)
(0 0 -1.11193e-11)
(0 0 -1.11199e-11)
(0 0 -1.03791e-11)
(0 0 -9.63822e-12)
(0 0 -9.63872e-12)
(0 0 -1.03807e-11)
(0 0 -9.63971e-12)
(0 0 -8.1571e-12)
(0 0 -9.6407e-12)
(0 0 -8.15794e-12)
(0 0 -8.15836e-12)
(0 0 -9.64219e-12)
(0 0 -9.64269e-12)
(0 0 -9.64318e-12)
(0 0 -8.90186e-12)
(0 0 -8.16046e-12)
(0 0 -7.41898e-12)
(0 0 -6.67743e-12)
(0 0 -5.93579e-12)
(0 0 -5.9361e-12)
(0 0 -6.67846e-12)
(0 0 -8.90507e-12)
(0 0 -8.90553e-12)
(0 0 -8.90599e-12)
(0 0 -7.42204e-12)
(0 0 -6.68018e-12)
(0 0 -5.93824e-12)
(0 0 -5.93855e-12)
(0 0 -5.93886e-12)
(0 0 -5.19677e-12)
(0 0 -2.2273e-12)
(0 0 -2.22742e-12)
(0 0 -3.71255e-12)
(0 0 -2.9702e-12)
(0 0 -3.71294e-12)
(0 0 -3.71313e-12)
(0 0 -4.45598e-12)
(0 0 -4.45621e-12)
(0 0 -5.94193e-12)
(0 0 -5.94223e-12)
(0 0 -6.68536e-12)
(0 0 -5.19999e-12)
(0 0 -4.45737e-12)
(0 0 -4.4576e-12)
(0 0 -5.94377e-12)
(0 0 -4.45806e-12)
(0 0 -3.71524e-12)
(0 0 -4.45852e-12)
(0 0 -4.45875e-12)
(0 0 -5.20214e-12)
(0 0 -5.94562e-12)
(0 0 -5.20268e-12)
(0 0 -5.20295e-12)
(0 0 -5.94654e-12)
(0 0 -5.94685e-12)
(0 0 -5.94716e-12)
(0 0 -7.43433e-12)
(0 0 -6.69124e-12)
(0 0 -7.4351e-12)
(0 0 -7.43549e-12)
(0 0 -8.17946e-12)
(0 0 -8.17988e-12)
(0 0 -8.92397e-12)
(0 0 -9.66814e-12)
(0 0 -1.11561e-11)
(0 0 -1.11567e-11)
(0 0 -1.11573e-11)
(0 0 -1.0414e-11)
(0 0 -9.67065e-12)
(0 0 -9.67115e-12)
(0 0 -1.04156e-11)
(0 0 -9.67215e-12)
(0 0 -8.18456e-12)
(0 0 -7.44089e-12)
(0 0 -7.44128e-12)
(0 0 -6.6975e-12)
(0 0 -6.69785e-12)
(0 0 -6.69819e-12)
(0 0 -7.44283e-12)
(0 0 -7.44321e-12)
(0 0 -8.18796e-12)
(0 0 -8.18839e-12)
(0 0 -8.93325e-12)
(0 0 -8.18924e-12)
(0 0 -8.93418e-12)
(0 0 -7.44554e-12)
(0 0 -8.19052e-12)
(0 0 -8.93557e-12)
(0 0 -8.93604e-12)
(0 0 -8.1918e-12)
(0 0 -8.19222e-12)
(0 0 -8.19265e-12)
(0 0 -8.19308e-12)
(0 0 -7.44864e-12)
(0 0 -5.95922e-12)
(0 0 -5.21459e-12)
(0 0 -5.21486e-12)
(0 0 -5.21513e-12)
(0 0 -5.21541e-12)
(0 0 -4.47058e-12)
(0 0 -4.47081e-12)
(0 0 -5.21622e-12)
(0 0 -4.47128e-12)
(0 0 -5.21677e-12)
(0 0 -5.96233e-12)
(0 0 -4.47198e-12)
(0 0 -3.72685e-12)
(0 0 -2.98163e-12)
(0 0 -2.23634e-12)
(0 0 -7.45486e-13)
(0 0 0)
(0 0 0)
(0 0 -1.49121e-12)
(0 0 -1.49128e-12)
(0 0 0)
(0 0 0)
(0 0 0)
(0 0 -1.4916e-12)
(0 0 -2.23751e-12)
(0 0 -2.9835e-12)
(0 0 -2.98366e-12)
(0 0 -2.23786e-12)
(0 0 -2.23798e-12)
(0 0 -7.46032e-13)
(0 0 1.49214e-12)
(0 0 1.49222e-12)
(0 0 2.23845e-12)
(0 0 2.98475e-12)
(0 0 2.23868e-12)
(0 0 7.46266e-13)
(0 0 -7.46306e-13)
(0 0 -7.46345e-13)
(0 0 0)
(0 0 -7.46423e-13)
(0 0 7.46462e-13)
(0 0 1.493e-12)
(0 0 1.49308e-12)
(0 0 7.46579e-13)
(0 0 1.49324e-12)
(0 0 2.98663e-12)
(0 0 2.24009e-12)
(0 0 2.24021e-12)
(0 0 0)
(0 0 1.49363e-12)
(0 0 2.24056e-12)
(0 0 2.98757e-12)
(0 0 2.98773e-12)
(0 0 4.48183e-12)
(0 0 2.98804e-12)
(0 0 2.24115e-12)
(0 0 2.24127e-12)
(0 0 2.24139e-12)
(0 0 2.2415e-12)
(0 0 2.98883e-12)
(0 0 2.24174e-12)
(0 0 2.98914e-12)
(0 0 2.24197e-12)
(0 0 2.98946e-12)
(0 0 2.98961e-12)
(0 0 2.24233e-12)
(0 0 7.47482e-13)
(0 0 1.49504e-12)
(0 0 1.49512e-12)
(0 0 2.2428e-12)
(0 0 1.49528e-12)
(0 0 2.24304e-12)
(0 0 3.73859e-12)
(0 0 4.48655e-12)
(0 0 3.73899e-12)
(0 0 4.48702e-12)
(0 0 5.23513e-12)
(0 0 2.99166e-12)
(0 0 3.73978e-12)
(0 0 3.73997e-12)
(0 0 2.99214e-12)
(0 0 2.24422e-12)
(0 0 2.24434e-12)
(0 0 2.24446e-12)
(0 0 2.24458e-12)
(0 0 2.24469e-12)
(0 0 2.24481e-12)
(0 0 2.24493e-12)
(0 0 2.24505e-12)
(0 0 7.48389e-13)
(0 0 0)
(0 0 0)
(0 0 2.24552e-12)
(0 0 2.99419e-12)
(0 0 2.99435e-12)
(0 0 2.99451e-12)
(0 0 2.99467e-12)
(0 0 2.99482e-12)
(0 0 2.24624e-12)
(0 0 2.24636e-12)
(0 0 1.49765e-12)
(0 0 1.49773e-12)
(0 0 1.49781e-12)
(0 0 2.99577e-12)
(0 0 4.4939e-12)
(0 0 5.99218e-12)
(0 0 7.49063e-12)
(0 0 8.24012e-12)
(0 0 8.24056e-12)
(0 0 8.99018e-12)
(0 0 8.24143e-12)
(0 0 7.49261e-12)
(0 0 8.24231e-12)
(0 0 8.24274e-12)
(0 0 9.74194e-12)
(0 0 8.99304e-12)
(0 0 1.04924e-11)
(0 0 1.0493e-11)
(0 0 1.19926e-11)
(0 0 1.19933e-11)
(0 0 1.19939e-11)
(0 0 1.12449e-11)
(0 0 1.04958e-11)
(0 0 1.12461e-11)
(0 0 1.04969e-11)
(0 0 1.04974e-11)
(0 0 1.0498e-11)
(0 0 9.74867e-12)
(0 0 8.99925e-12)
(0 0 8.24975e-12)
(0 0 6.75015e-12)
(0 0 6.75051e-12)
(0 0 5.25068e-12)
(0 0 6.00109e-12)
(0 0 6.00141e-12)
(0 0 6.00173e-12)
(0 0 4.50154e-12)
(0 0 5.25207e-12)
(0 0 6.00269e-12)
(0 0 4.50226e-12)
(0 0 4.5025e-12)
(0 0 3.00182e-12)
(0 0 2.25149e-12)
(0 0 1.50107e-12)
(0 0 1.50115e-12)
(0 0 1.50123e-12)
(0 0 1.50131e-12)
(0 0 2.25209e-12)
(0 0 2.25221e-12)
(0 0 2.25233e-12)
(0 0 1.50163e-12)
(0 0 -7.50856e-13)
(0 0 -7.50896e-13)
(0 0 -3.00374e-12)
(0 0 -3.75488e-12)
(0 0 -3.00406e-12)
(0 0 -3.00422e-12)
(0 0 -2.25329e-12)
(0 0 -2.25341e-12)
(0 0 -3.00471e-12)
(0 0 -3.75608e-12)
(0 0 -5.2588e-12)
(0 0 -5.25908e-12)
(0 0 -3.75668e-12)
(0 0 -4.50826e-12)
(0 0 -4.5085e-12)
(0 0 -3.75729e-12)
(0 0 -3.75749e-12)
(0 0 -3.75769e-12)
(0 0 -4.50947e-12)
(0 0 -5.26133e-12)
(0 0 -6.01326e-12)
(0 0 -5.26189e-12)
(0 0 -7.51739e-12)
(0 0 -6.76601e-12)
(0 0 -6.01455e-12)
(0 0 -7.51859e-12)
(0 0 -5.2633e-12)
(0 0 -5.26358e-12)
(0 0 -3.7599e-12)
(0 0 -3.7601e-12)
(0 0 -4.51236e-12)
(0 0 -3.7605e-12)
(0 0 -2.25642e-12)
(0 0 -1.50436e-12)
(0 0 -2.25667e-12)
(0 0 -1.50452e-12)
(0 0 -3.00921e-12)
(0 0 -3.76171e-12)
(0 0 -4.5143e-12)
(0 0 -4.51454e-12)
(0 0 -6.01971e-12)
(0 0 -6.77254e-12)
(0 0 -6.7729e-12)
(0 0 -6.02068e-12)
(0 0 -6.021e-12)
(0 0 -6.02133e-12)
(0 0 -5.26894e-12)
(0 0 -3.76373e-12)
(0 0 -2.25836e-12)
(0 0 -3.01131e-12)
(0 0 -2.2586e-12)
(0 0 -3.76454e-12)
(0 0 -3.76474e-12)
(0 0 -5.27092e-12)
(0 0 -5.27121e-12)
(0 0 -4.51842e-12)
(0 0 -3.76555e-12)
(0 0 -4.51891e-12)
(0 0 -3.76596e-12)
(0 0 -3.01293e-12)
(0 0 -2.25982e-12)
(0 0 -2.25994e-12)
(0 0 -7.53354e-13)
(0 0 -1.50679e-12)
(0 0 -3.01374e-12)
(0 0 -5.27433e-12)
(0 0 -4.5211e-12)
(0 0 -5.2749e-12)
(0 0 -5.27518e-12)
(0 0 -5.27546e-12)
(0 0 -4.52207e-12)
(0 0 -3.01488e-12)
(0 0 -3.01504e-12)
(0 0 -3.0152e-12)
(0 0 -3.7692e-12)
(0 0 -4.52329e-12)
(0 0 -3.76961e-12)
(0 0 -4.52378e-12)
(0 0 -3.01601e-12)
(0 0 -3.01618e-12)
(0 0 -3.01634e-12)
(0 0 -3.77063e-12)
(0 0 -3.77083e-12)
(0 0 -3.01683e-12)
(0 0 -3.01699e-12)
(0 0 -3.01715e-12)
(0 0 -3.01732e-12)
(0 0 -3.01748e-12)
(0 0 -3.01764e-12)
(0 0 -3.77226e-12)
(0 0 -3.01797e-12)
(0 0 -3.01813e-12)
(0 0 -3.0183e-12)
(0 0 -3.01846e-12)
(0 0 -3.01862e-12)
(0 0 -2.26409e-12)
(0 0 -4.52842e-12)
(0 0 -3.77389e-12)
(0 0 -3.7741e-12)
(0 0 -2.26458e-12)
(0 0 -1.5098e-12)
(0 0 -2.26482e-12)
(0 0 -7.54982e-13)
(0 0 -3.02009e-12)
(0 0 -3.02026e-12)
(0 0 -3.02042e-12)
(0 0 -4.53088e-12)
(0 0 -3.77594e-12)
(0 0 -3.02091e-12)
(0 0 -1.51054e-12)
(0 0 -2.26593e-12)
(0 0 -1.5107e-12)
(0 0 -2.26618e-12)
(0 0 -2.2663e-12)
(0 0 -1.51095e-12)
(0 0 -1.51103e-12)
(0 0 -7.55556e-13)
(0 0 7.55597e-13)
(0 0 1.51128e-12)
(0 0 1.51136e-12)
(0 0 2.26716e-12)
(0 0 2.26728e-12)
(0 0 2.26741e-12)
(0 0 1.51169e-12)
(0 0 1.51177e-12)
(0 0 -7.55925e-13)
(0 0 -7.55966e-13)
(0 0 0)
(0 0 1.5121e-12)
(0 0 2.26827e-12)
(0 0 2.26839e-12)
(0 0 0)
(0 0 0)
(0 0 1.51251e-12)
(0 0 1.51259e-12)
(0 0 0)
(0 0 0)
(0 0 0)
(0 0 0)
(0 0 -3.026e-12)
(0 0 -3.02617e-12)
(0 0 -2.26975e-12)
(0 0 -2.26987e-12)
(0 0 -1.51333e-12)
(0 0 -2.27012e-12)
(0 0 -1.5135e-12)
(0 0 -1.51358e-12)
(0 0 -1.51366e-12)
(0 0 0)
(0 0 0)
(0 0 -2.27086e-12)
(0 0 -7.56996e-13)
(0 0 0)
(0 0 1.51416e-12)
(0 0 1.51424e-12)
(0 0 1.51432e-12)
(0 0 3.02881e-12)
(0 0 1.51449e-12)
(0 0 0)
(0 0 7.57327e-13)
(0 0 1.51474e-12)
(0 0 1.51482e-12)
(0 0 1.5149e-12)
(0 0 1.51499e-12)
(0 0 -7.57534e-13)
(0 0 -1.51515e-12)
(0 0 -1.51523e-12)
(0 0 -2.27297e-12)
(0 0 -3.0308e-12)
(0 0 -2.27322e-12)
(0 0 -3.03113e-12)
(0 0 -2.27347e-12)
(0 0 -2.2736e-12)
(0 0 -2.27372e-12)
(0 0 -3.03179e-12)
(0 0 -3.03196e-12)
(0 0 -3.03213e-12)
(0 0 -3.03229e-12)
(0 0 -3.03246e-12)
(0 0 -3.03263e-12)
(0 0 -1.5164e-12)
(0 0 -2.27472e-12)
(0 0 -2.27484e-12)
(0 0 -2.27497e-12)
(0 0 -2.27509e-12)
(0 0 -1.51681e-12)
(0 0 -3.03379e-12)
(0 0 -3.03396e-12)
(0 0 -1.51706e-12)
(0 0 -1.51714e-12)
(0 0 -7.58614e-13)
(0 0 0)
(0 0 7.58697e-13)
(0 0 0)
(0 0 7.58781e-13)
(0 0 0)
(0 0 0)
(0 0 7.58906e-13)
(0 0 0)
(0 0 0)
(0 0 7.59031e-13)
(0 0 7.59073e-13)
(0 0 7.59114e-13)
(0 0 7.59156e-13)
(0 0 3.03679e-12)
(0 0 1.51848e-12)
(0 0 1.51856e-12)
(0 0 7.59323e-13)
(0 0 0)
(0 0 -7.59407e-13)
(0 0 -2.27835e-12)
(0 0 -3.03796e-12)
(0 0 -2.2786e-12)
(0 0 -3.0383e-12)
(0 0 -2.27885e-12)
(0 0 -3.03863e-12)
(0 0 -3.0388e-12)
(0 0 -4.55845e-12)
(0 0 -4.5587e-12)
(0 0 -2.27948e-12)
(0 0 -3.03947e-12)
(0 0 -4.55946e-12)
(0 0 -4.55971e-12)
(0 0 -5.31995e-12)
(0 0 -6.08028e-12)
(0 0 -5.32054e-12)
(0 0 -5.32083e-12)
(0 0 -3.8008e-12)
(0 0 -2.28061e-12)
(0 0 -2.28073e-12)
(0 0 -2.28086e-12)
(0 0 -3.04132e-12)
(0 0 -3.04148e-12)
(0 0 -1.52083e-12)
(0 0 -1.52091e-12)
(0 0 -7.60497e-13)
(0 0 7.60539e-13)
(0 0 7.60581e-13)
(0 0 7.60623e-13)
(0 0 -7.60665e-13)
(0 0 -1.52141e-12)
(0 0 -2.28225e-12)
(0 0 -3.04317e-12)
(0 0 -5.32584e-12)
(0 0 -4.56525e-12)
(0 0 -3.80459e-12)
(0 0 -3.04384e-12)
(0 0 -2.28301e-12)
(0 0 -3.04418e-12)
(0 0 -2.28326e-12)
(0 0 -1.52226e-12)
(0 0 0)
(0 0 1.52243e-12)
(0 0 2.28377e-12)
(0 0 7.61297e-13)
(0 0 1.52268e-12)
(0 0 0)
(0 0 -7.61424e-13)
(0 0 7.61466e-13)
(0 0 7.61509e-13)
(0 0 7.61551e-13)
(0 0 1.52319e-12)
(0 0 7.61635e-13)
(0 0 7.61678e-13)
(0 0 1.52344e-12)
(0 0 7.61762e-13)
(0 0 0)
(0 0 0)
(0 0 0)
(0 0 0)
(0 0 0)
(0 0 7.62016e-13)
(0 0 0)
(0 0 2.2863e-12)
(0 0 1.52429e-12)
(0 0 3.04874e-12)
(0 0 3.04891e-12)
(0 0 1.52454e-12)
(0 0 3.04925e-12)
(0 0 7.62356e-13)
(0 0 1.5248e-12)
(0 0 1.52488e-12)
(0 0 1.52497e-12)
(0 0 3.0501e-12)
(0 0 3.05027e-12)
(0 0 3.81305e-12)
(0 0 4.57592e-12)
(0 0 3.81348e-12)
(0 0 3.05095e-12)
(0 0 3.8139e-12)
(0 0 1.52565e-12)
(0 0 2.2886e-12)
(0 0 1.52582e-12)
(0 0 1.5259e-12)
(0 0 0)
(0 0 -7.63036e-13)
(0 0 -1.52616e-12)
(0 0 -7.63121e-13)
(0 0 -7.63164e-13)
(0 0 0)
(0 0 7.63249e-13)
(0 0 0)
(0 0 1.52667e-12)
(0 0 -1.52675e-12)
(0 0 -3.05368e-12)
(0 0 -3.81731e-12)
(0 0 -4.58103e-12)
(0 0 -5.34483e-12)
(0 0 -5.34513e-12)
(0 0 -5.34543e-12)
(0 0 -4.58205e-12)
(0 0 -5.34603e-12)
(0 0 -5.34633e-12)
(0 0 -6.11043e-12)
(0 0 -4.58308e-12)
(0 0 -5.34723e-12)
(0 0 -5.34753e-12)
(0 0 -5.34783e-12)
(0 0 -5.34813e-12)
(0 0 -4.58436e-12)
(0 0 -6.11283e-12)
(0 0 -7.64146e-12)
(0 0 -8.40608e-12)
(0 0 -7.64232e-12)
(0 0 -7.64275e-12)
(0 0 -8.40749e-12)
(0 0 -9.93669e-12)
(0 0 -9.93724e-12)
(0 0 -6.88002e-12)
(0 0 -6.8804e-12)
(0 0 -7.64532e-12)
(0 0 -8.41033e-12)
(0 0 -6.88156e-12)
(0 0 -8.41127e-12)
(0 0 -7.64704e-12)
(0 0 -7.64747e-12)
(0 0 -6.11832e-12)
(0 0 -6.88349e-12)
(0 0 -7.64876e-12)
(0 0 -7.64919e-12)
(0 0 -8.41458e-12)
(0 0 -9.18006e-12)
(0 0 -7.65048e-12)
(0 0 -6.88582e-12)
(0 0 -5.35594e-12)
(0 0 -6.12141e-12)
(0 0 -6.12176e-12)
(0 0 -6.88737e-12)
(0 0 -7.65306e-12)
(0 0 -6.12279e-12)
(0 0 -6.88853e-12)
(0 0 -6.88892e-12)
(0 0 -7.65478e-12)
(0 0 -5.35865e-12)
(0 0 -6.12452e-12)
(0 0 -6.12486e-12)
(0 0 -6.89086e-12)
(0 0 -7.65694e-12)
(0 0 -7.65737e-12)
(0 0 -6.89202e-12)
(0 0 -6.12659e-12)
(0 0 -6.12693e-12)
(0 0 -4.59546e-12)
(0 0 -5.36167e-12)
(0 0 -5.36197e-12)
(0 0 -6.12832e-12)
(0 0 -6.12866e-12)
(0 0 -4.59676e-12)
(0 0 -4.59702e-12)
(0 0 -4.59728e-12)
(0 0 -6.13005e-12)
(0 0 -6.13039e-12)
(0 0 -6.89708e-12)
(0 0 -4.59831e-12)
(0 0 -5.365e-12)
(0 0 -6.13178e-12)
(0 0 -5.36561e-12)
(0 0 -6.13247e-12)
(0 0 -5.36622e-12)
(0 0 -3.06658e-12)
(0 0 -3.06676e-12)
(0 0 -1.53347e-12)
(0 0 -2.30033e-12)
(0 0 -2.30046e-12)
(0 0 -1.53373e-12)
(0 0 -7.66906e-13)
(0 0 -1.5339e-12)
(0 0 -1.53399e-12)
(0 0 -7.67037e-13)
(0 0 -7.6708e-13)
(0 0 -3.06849e-12)
(0 0 -1.53433e-12)
(0 0 -2.30163e-12)
(0 0 -2.30176e-12)
(0 0 -7.67297e-13)
(0 0 -1.53468e-12)
(0 0 -1.53477e-12)
(0 0 0)
(0 0 0)
(0 0 2.30255e-12)
(0 0 1.53512e-12)
(0 0 1.5352e-12)
(0 0 1.53529e-12)
(0 0 1.53538e-12)
(0 0 7.67733e-13)
(0 0 7.67777e-13)
(0 0 0)
(0 0 -1.53573e-12)
(0 0 -3.07163e-12)
(0 0 -2.30385e-12)
(0 0 -4.60797e-12)
(0 0 -6.14431e-12)
(0 0 -5.37657e-12)
(0 0 -3.84063e-12)
(0 0 -3.84085e-12)
(0 0 -1.53643e-12)
(0 0 -3.07303e-12)
(0 0 -1.5366e-12)
(0 0 -7.68344e-13)
(0 0 -1.53678e-12)
(0 0 -1.53686e-12)
(0 0 -7.68476e-13)
(0 0 0)
(0 0 1.53713e-12)
(0 0 1.53721e-12)
(0 0 7.68651e-13)
(0 0 7.68694e-13)
(0 0 -7.68738e-13)
(0 0 -1.53756e-12)
(0 0 -3.0753e-12)
(0 0 -4.61322e-12)
(0 0 -6.15131e-12)
(0 0 -6.15166e-12)
(0 0 -5.38301e-12)
(0 0 -3.84523e-12)
(0 0 -4.61453e-12)
(0 0 -4.6148e-12)
(0 0 -2.30753e-12)
(0 0 -2.30766e-12)
(0 0 -3.07706e-12)
(0 0 -3.07724e-12)
(0 0 -2.30806e-12)
(0 0 -1.53879e-12)
(0 0 -1.53888e-12)
(0 0 -2.30845e-12)
(0 0 -1.53906e-12)
(0 0 -1.53915e-12)
(0 0 -7.69617e-13)
(0 0 -7.69661e-13)
(0 0 -1.53941e-12)
(0 0 -1.5395e-12)
(0 0 -2.30938e-12)
(0 0 -2.30951e-12)
(0 0 -2.30964e-12)
(0 0 -7.69925e-13)
(0 0 0)
(0 0 7.70013e-13)
(0 0 7.70057e-13)
(0 0 1.5402e-12)
(0 0 1.54029e-12)
(0 0 1.54038e-12)
(0 0 -7.70234e-13)
(0 0 7.70278e-13)
(0 0 7.70322e-13)
(0 0 7.70366e-13)
(0 0 1.54082e-12)
(0 0 3.08182e-12)
(0 0 3.082e-12)
(0 0 3.08217e-12)
(0 0 3.08235e-12)
(0 0 1.54126e-12)
(0 0 2.31203e-12)
(0 0 3.08288e-12)
(0 0 7.70764e-13)
(0 0 1.54162e-12)
(0 0 3.85426e-12)
(0 0 3.85449e-12)
(0 0 1.54188e-12)
(0 0 3.08394e-12)
(0 0 3.08412e-12)
(0 0 5.39752e-12)
(0 0 5.39783e-12)
(0 0 6.1693e-12)
(0 0 6.16966e-12)
(0 0 6.17001e-12)
(0 0 5.39907e-12)
(0 0 4.62804e-12)
(0 0 4.62831e-12)
(0 0 6.94286e-12)
(0 0 6.94326e-12)
(0 0 6.17215e-12)
(0 0 6.94406e-12)
(0 0 6.94446e-12)
(0 0 7.71652e-12)
(0 0 6.17357e-12)
(0 0 6.17392e-12)
(0 0 6.17428e-12)
(0 0 5.40281e-12)
(0 0 6.17499e-12)
(0 0 5.40343e-12)
(0 0 5.40374e-12)
(0 0 5.40405e-12)
(0 0 5.40436e-12)
(0 0 5.40468e-12)
(0 0 4.63285e-12)
(0 0 4.63311e-12)
(0 0 4.63338e-12)
(0 0 6.95047e-12)
(0 0 4.63392e-12)
(0 0 4.63418e-12)
(0 0 5.40686e-12)
(0 0 6.17963e-12)
(0 0 6.95248e-12)
(0 0 6.95288e-12)
(0 0 7.72587e-12)
(0 0 7.72632e-12)
(0 0 6.18141e-12)
(0 0 6.95449e-12)
(0 0 6.18213e-12)
(0 0 6.18249e-12)
(0 0 6.9557e-12)
(0 0 6.1832e-12)
(0 0 5.41062e-12)
(0 0 6.18392e-12)
(0 0 5.41124e-12)
(0 0 6.95771e-12)
(0 0 7.73124e-12)
(0 0 8.50486e-12)
(0 0 6.18571e-12)
(0 0 5.41281e-12)
(0 0 2.31991e-12)
(0 0 2.32004e-12)
(0 0 1.54679e-12)
(0 0 2.32031e-12)
(0 0 3.09393e-12)
(0 0 2.32058e-12)
(0 0 1.54714e-12)
(0 0 1.54723e-12)
(0 0 3.09465e-12)
(0 0 3.09483e-12)
(0 0 2.32126e-12)
(0 0 1.54759e-12)
(0 0 7.73842e-13)
(0 0 1.54777e-12)
(0 0 7.73932e-13)
(0 0 0)
(0 0 0)
(0 0 7.74067e-13)
(0 0 0)
(0 0 -7.74157e-13)
(0 0 -1.5484e-12)
(0 0 -7.74247e-13)
(0 0 -1.54858e-12)
(0 0 -2.32301e-12)
(0 0 -2.32315e-12)
(0 0 -3.09771e-12)
(0 0 -3.09789e-12)
(0 0 -3.09807e-12)
(0 0 -1.54912e-12)
(0 0 -7.74607e-13)
(0 0 7.74653e-13)
(0 0 1.5494e-12)
(0 0 7.74743e-13)
(0 0 0)
(0 0 -7.74833e-13)
(0 0 -7.74878e-13)
(0 0 -1.54985e-12)
(0 0 -3.09987e-12)
(0 0 -3.10006e-12)
(0 0 -2.32518e-12)
(0 0 -2.32531e-12)
(0 0 -1.5503e-12)
(0 0 -7.75195e-13)
(0 0 0)
(0 0 0)
(0 0 -7.75331e-13)
(0 0 -1.55075e-12)
(0 0 0)
(0 0 0)
(0 0 1.55102e-12)
(0 0 1.55111e-12)
(0 0 1.5512e-12)
(0 0 1.5513e-12)
(0 0 3.10277e-12)
(0 0 3.10295e-12)
(0 0 5.43049e-12)
(0 0 4.65498e-12)
(0 0 4.65525e-12)
(0 0 3.8796e-12)
(0 0 3.10386e-12)
(0 0 2.32803e-12)
(0 0 7.76056e-13)
(0 0 0)
(0 0 -7.76147e-13)
(0 0 7.76193e-13)
(0 0 -7.76238e-13)
(0 0 -7.76284e-13)
(0 0 7.76329e-13)
(0 0 7.76375e-13)
(0 0 1.55284e-12)
(0 0 0)
(0 0 1.55302e-12)
(0 0 0)
(0 0 0)
(0 0 1.5533e-12)
(0 0 1.55339e-12)
(0 0 2.33022e-12)
(0 0 1.55357e-12)
(0 0 3.10732e-12)
(0 0 5.43813e-12)
(0 0 5.43845e-12)
(0 0 6.99271e-12)
(0 0 6.2161e-12)
(0 0 6.21647e-12)
(0 0 6.21683e-12)
(0 0 6.2172e-12)
(0 0 4.66317e-12)
(0 0 3.10897e-12)
(0 0 3.88644e-12)
(0 0 3.10933e-12)
(0 0 3.88689e-12)
(0 0 4.66455e-12)
(0 0 5.44229e-12)
(0 0 5.44261e-12)
(0 0 4.66537e-12)
(0 0 6.22086e-12)
(0 0 5.44357e-12)
(0 0 6.22159e-12)
(0 0 6.22196e-12)
(0 0 4.66674e-12)
(0 0 4.66702e-12)
(0 0 7.00094e-12)
(0 0 7.77928e-12)
(0 0 7.77974e-12)
(0 0 7.00218e-12)
(0 0 7.78066e-12)
(0 0 8.55923e-12)
(0 0 8.55973e-12)
(0 0 7.78203e-12)
(0 0 7.78249e-12)
(0 0 7.78295e-12)
(0 0 7.00507e-12)
(0 0 6.2271e-12)
(0 0 5.44903e-12)
(0 0 5.44935e-12)
(0 0 5.44968e-12)
(0 0 7.00714e-12)
(0 0 7.00755e-12)
(0 0 7.00797e-12)
(0 0 5.45096e-12)
(0 0 3.89378e-12)
(0 0 4.67281e-12)
(0 0 4.67308e-12)
(0 0 5.45225e-12)
(0 0 4.67364e-12)
(0 0 4.67391e-12)
(0 0 3.89516e-12)
(0 0 3.89539e-12)
(0 0 4.67474e-12)
(0 0 6.23336e-12)
(0 0 5.45451e-12)
(0 0 6.2341e-12)
(0 0 3.89654e-12)
(0 0 5.45548e-12)
(0 0 3.897e-12)
(0 0 3.89724e-12)
(0 0 2.33848e-12)
(0 0 1.55908e-12)
(0 0 2.33876e-12)
(0 0 3.89816e-12)
(0 0 4.67807e-12)
(0 0 5.45807e-12)
(0 0 6.23817e-12)
(0 0 6.23854e-12)
(0 0 7.01877e-12)
(0 0 6.23928e-12)
(0 0 7.79956e-12)
(0 0 7.80002e-12)
(0 0 7.02044e-12)
(0 0 7.02085e-12)
(0 0 7.02127e-12)
(0 0 7.80188e-12)
(0 0 7.80234e-12)
(0 0 1.09239e-11)
(0 0 1.09246e-11)
(0 0 1.01449e-11)
(0 0 7.8042e-12)
(0 0 8.58513e-12)
(0 0 8.58564e-12)
(0 0 1.01473e-11)
(0 0 1.09285e-11)
(0 0 1.01485e-11)
(0 0 9.36838e-12)
(0 0 9.36894e-12)
(0 0 8.58871e-12)
(0 0 8.58922e-12)
(0 0 6.24708e-12)
(0 0 4.68559e-12)
(0 0 4.68587e-12)
(0 0 4.68614e-12)
(0 0 3.12428e-12)
(0 0 2.34335e-12)
(0 0 2.34349e-12)
(0 0 7.8121e-13)
(0 0 7.81257e-13)
(0 0 1.56261e-12)
(0 0 0)
(0 0 -7.81397e-13)
(0 0 0)
(0 0 7.8149e-13)
(0 0 2.34461e-12)
(0 0 3.12633e-12)
(0 0 4.68978e-12)
(0 0 4.69006e-12)
(0 0 3.90862e-12)
(0 0 2.34531e-12)
(0 0 7.81817e-13)
(0 0 0)
(0 0 0)
(0 0 -1.56392e-12)
(0 0 -1.56401e-12)
(0 0 -2.34615e-12)
(0 0 -2.34629e-12)
(0 0 -2.34643e-12)
(0 0 -4.69315e-12)
(0 0 -5.47567e-12)
(0 0 -5.476e-12)
(0 0 -5.47632e-12)
(0 0 -5.47665e-12)
(0 0 -5.47698e-12)
(0 0 -5.47731e-12)
(0 0 -6.26016e-12)
(0 0 -4.6954e-12)
(0 0 -5.47829e-12)
(0 0 -2.34798e-12)
(0 0 -3.13083e-12)
(0 0 -2.34826e-12)
(0 0 -2.3484e-12)
(0 0 -1.5657e-12)
(0 0 -3.13158e-12)
(0 0 -2.34883e-12)
(0 0 -3.91495e-12)
(0 0 -3.91518e-12)
(0 0 -3.91542e-12)
(0 0 -3.91565e-12)
(0 0 -4.69906e-12)
(0 0 -4.69935e-12)
(0 0 -4.69963e-12)
(0 0 -4.69991e-12)
(0 0 -6.26692e-12)
(0 0 -6.2673e-12)
(0 0 -7.05114e-12)
(0 0 -4.70104e-12)
(0 0 -4.70132e-12)
(0 0 -5.48521e-12)
(0 0 -5.48554e-12)
(0 0 -7.05326e-12)
(0 0 -6.26994e-12)
(0 0 -6.27032e-12)
(0 0 -7.83837e-12)
(0 0 -7.05496e-12)
(0 0 -7.05538e-12)
(0 0 -7.83979e-12)
(0 0 -8.62429e-12)
(0 0 -7.05666e-12)
(0 0 -8.62533e-12)
(0 0 -7.84168e-12)
(0 0 -9.41058e-12)
(0 0 -9.41115e-12)
(0 0 -9.41172e-12)
(0 0 -8.62793e-12)
(0 0 -8.62845e-12)
(0 0 -9.41342e-12)
(0 0 -1.01985e-11)
(0 0 -1.01991e-11)
(0 0 -9.41513e-12)
(0 0 -1.02003e-11)
(0 0 -1.0201e-11)
(0 0 -1.02016e-11)
(0 0 -1.02022e-11)
(0 0 -1.02028e-11)
(0 0 -1.25581e-11)
(0 0 -1.25588e-11)
(0 0 -1.17746e-11)
(0 0 -1.02053e-11)
(0 0 -1.02059e-11)
(0 0 -9.42139e-12)
(0 0 -9.42196e-12)
(0 0 -9.42253e-12)
(0 0 -9.4231e-12)
(0 0 -8.63836e-12)
(0 0 -8.63889e-12)
(0 0 -7.85401e-12)
(0 0 -7.85448e-12)
(0 0 -7.06946e-12)
(0 0 -7.85544e-12)
(0 0 -8.6415e-12)
(0 0 -8.64203e-12)
(0 0 -7.85686e-12)
(0 0 -7.85734e-12)
(0 0 -9.42938e-12)
(0 0 -9.42995e-12)
(0 0 -9.43053e-12)
(0 0 -8.64517e-12)
(0 0 -7.85972e-12)
(0 0 -7.8602e-12)
(0 0 -5.50248e-12)
(0 0 -3.14446e-12)
(0 0 -3.93082e-12)
(0 0 -4.71727e-12)
(0 0 -6.29007e-12)
(0 0 -3.93153e-12)
(0 0 -3.14542e-12)
(0 0 -3.14561e-12)
(0 0 0)
(0 0 1.573e-12)
(0 0 0)